# vtk DataFile Version 4.2 
output from GascoigneStd, 
ASCII
DATASET UNSTRUCTURED_GRID
POINTS 1122 DOUBLE 
1.64645 2.35355  0
1.1 1.1  0
2 1  0
3 0  0
2 0  0
1 2  0
0 3  0
0 2  0
1 0  0
0 1  0
0 0  0
3 2  0
1.1 2.9  0
2 3  0
2.9 2.9  0
4 3  0
6 2  0
4 2  0
6 1  0
9 1  0
13 0  0
9 0  0
2.9 1.1  0
4 1  0
6 0  0
4 0  0
13 2  0
6 3  0
9 3  0
9 2  0
13 3  0
17.5 3  0
22 2  0
17.5 2  0
22 1  0
13 1  0
17.5 1  0
22 0  0
17.5 0  0
22 3  0
3 4.1  0
2 4.1  0
1 4.1  0
0 4.1  0
13 4.1  0
9 4.1  0
6 4.1  0
4 4.1  0
22 4.1  0
17.5 4.1  0
1.5 2  0
1.64645 1.64645  0
2 1.5  0
2.35355 1.64645  0
2.5 2  0
2.35355 2.35355  0
2 2.5  0
0.525 0.525  0
1.525 0.525  0
0.525 1.525  0
2.475 0.525  0
3.475 0.525  0
3.475 1.525  0
3.475 2.475  0
3.475 3.525  0
2.475 3.525  0
0.525 2.475  0
1.525 3.525  0
0.525 3.525  0
5 0.5  0
7.5 0.5  0
7.5 1.5  0
5 1.5  0
11 0.5  0
15.25 0.5  0
15.25 1.5  0
11 1.5  0
11 2.5  0
15.25 2.5  0
15.25 3.55  0
11 3.55  0
5 2.5  0
7.5 2.5  0
7.5 3.55  0
5 3.55  0
19.75 0.5  0
19.75 1.5  0
19.75 2.5  0
19.75 3.55  0
1.29403 1.67933  0
1.67933 1.29403  0
2.32067 1.29403  0
2.70597 1.67933  0
2.70597 2.32067  0
2.32067 2.70597  0
1.67933 2.70597  0
1.29403 2.32067  0
1.55 1.05  0
2 0.5  0
1.05 1.55  0
2.5 0  0
1.05 0.55  0
0.55 1.05  0
1.5 0  0
0.5 2  0
1.37322 2.62678  0
0 2.5  0
0 1.5  0
1.05 2.45  0
0.5 0  0
0.55 2.95  0
0 0.5  0
2.45 1.05  0
2.95 0.55  0
2.95 2.45  0
1.55 2.95  0
2.45 2.95  0
3.5 0  0
3.5 2  0
3.45 2.95  0
4 2.5  0
2.95 1.55  0
5 2  0
6 1.5  0
7.5 1  0
4 1.5  0
9 0.5  0
5 1  0
11 0  0
6 0.5  0
5 3  0
6 2.5  0
3.45 1.05  0
7.5 0  0
7.5 2  0
4 0.5  0
9 1.5  0
0 3.55  0
5 0  0
1.53806 2.19134  0
1.37322 1.37322  0
2.95 3.5  0
2 3.55  0
1.05 3.5  0
11 1  0
2 1.25  0
13 0.5  0
11 2  0
7.5 3  0
1.25 2  0
13 2.5  0
1.80866 2.46194  0
9 2.5  0
15.25 0  0
11 3  0
15.25 2  0
13 1.5  0
15.25 3  0
4 3.55  0
17.5 2.5  0
19.75 2  0
2.75 2  0
22 1.5  0
17.5 1.5  0
2.62678 2.62678  0
2 2.75  0
19.75 1  0
19.75 3  0
15.25 1  0
22 0.5  0
22 2.5  0
9 3.55  0
6 3.55  0
17.5 0.5  0
13 3.55  0
19.75 0  0
2.62678 1.37322  0
17.5 3.55  0
2.5 4.1  0
1.5 4.1  0
0.5 4.1  0
3.5 4.1  0
22 3.55  0
11 4.1  0
7.5 4.1  0
15.25 4.1  0
5 4.1  0
19.75 4.1  0
1.53806 1.80866  0
1.80866 1.53806  0
2.19134 1.53806  0
2.46194 1.80866  0
2.46194 2.19134  0
2.19134 2.46194  0
0.25625 0.25625  0
0.76875 0.26875  0
0.80625 0.80625  0
0.26875 0.76875  0
1.26875 0.26875  0
1.75625 0.25625  0
1.76875 0.76875  0
1.30625 0.80625  0
0.26875 1.26875  0
0.80625 1.30625  0
0.76875 1.76875  0
0.25625 1.75625  0
2.24375 0.25625  0
2.73125 0.26875  0
2.69375 0.80625  0
2.23125 0.76875  0
3.23125 0.26875  0
3.74375 0.25625  0
3.73125 0.76875  0
3.19375 0.80625  0
3.19375 1.30625  0
3.73125 1.26875  0
3.74375 1.75625  0
3.23125 1.76875  0
3.23125 2.23125  0
3.74375 2.24375  0
3.73125 2.73125  0
3.19375 2.69375  0
3.19375 3.21875  0
3.73125 3.25625  0
3.74375 3.81875  0
3.23125 3.80625  0
2.23125 3.25625  0
2.69375 3.21875  0
2.73125 3.80625  0
2.24375 3.81875  0
0.25625 2.24375  0
0.76875 2.23125  0
0.80625 2.69375  0
0.26875 2.73125  0
1.30625 3.21875  0
1.76875 3.25625  0
1.75625 3.81875  0
1.26875 3.80625  0
0.26875 3.25625  0
0.80625 3.21875  0
0.76875 3.80625  0
0.25625 3.81875  0
4.5 0.25  0
5.5 0.25  0
5.5 0.75  0
4.5 0.75  0
6.75 0.25  0
8.25 0.25  0
8.25 0.75  0
6.75 0.75  0
6.75 1.25  0
8.25 1.25  0
8.25 1.75  0
6.75 1.75  0
4.5 1.25  0
5.5 1.25  0
5.5 1.75  0
4.5 1.75  0
10 0.25  0
12 0.25  0
12 0.75  0
10 0.75  0
14.125 0.25  0
16.375 0.25  0
16.375 0.75  0
14.125 0.75  0
14.125 1.25  0
16.375 1.25  0
16.375 1.75  0
14.125 1.75  0
10 1.25  0
12 1.25  0
12 1.75  0
10 1.75  0
10 2.25  0
12 2.25  0
12 2.75  0
10 2.75  0
14.125 2.25  0
16.375 2.25  0
16.375 2.75  0
14.125 2.75  0
14.125 3.275  0
16.375 3.275  0
16.375 3.825  0
14.125 3.825  0
10 3.275  0
12 3.275  0
12 3.825  0
10 3.825  0
4.5 2.25  0
5.5 2.25  0
5.5 2.75  0
4.5 2.75  0
6.75 2.25  0
8.25 2.25  0
8.25 2.75  0
6.75 2.75  0
6.75 3.275  0
8.25 3.275  0
8.25 3.825  0
6.75 3.825  0
4.5 3.275  0
5.5 3.275  0
5.5 3.825  0
4.5 3.825  0
18.625 0.25  0
20.875 0.25  0
20.875 0.75  0
18.625 0.75  0
18.625 1.25  0
20.875 1.25  0
20.875 1.75  0
18.625 1.75  0
18.625 2.25  0
20.875 2.25  0
20.875 2.75  0
18.625 2.75  0
18.625 3.275  0
20.875 3.275  0
20.875 3.825  0
18.625 3.825  0
1.20431 1.42564  0
1.45895 1.62425  0
1.39081 1.87106  0
1.14851 1.80733  0
1.80733 1.14851  0
1.87106 1.39081  0
1.62425 1.45895  0
1.42564 1.20431  0
2.57436 1.20431  0
2.37575 1.45895  0
2.12894 1.39081  0
2.19267 1.14851  0
2.85149 1.80733  0
2.60919 1.87106  0
2.54105 1.62425  0
2.79569 1.42564  0
2.79569 2.57436  0
2.54105 2.37575  0
2.60919 2.12894  0
2.85149 2.19267  0
2.19267 2.85149  0
2.12894 2.60919  0
2.37575 2.54105  0
2.57436 2.79569  0
1.42564 2.79569  0
1.62425 2.54105  0
1.87106 2.60919  0
1.80733 2.85149  0
1.14851 2.19267  0
1.39081 2.12894  0
1.45895 2.37575  0
1.20431 2.57436  0
1.325 1.075  0
1.775 1.025  0
1.075 1.325  0
2 0.75  0
2 0.25  0
1.075 0.825  0
2.75 0  0
0.825 1.075  0
2.25 0  0
1.025 1.775  0
1.50983 2.49017  0
1.75 0  0
0.75 2  0
1.025 0.275  0
0.25 2  0
1.25 0  0
0.275 1.025  0
0 2.75  0
1.025 2.225  0
0 2.25  0
2.225 1.025  0
0 1.75  0
0.275 2.975  0
2.975 0.275  0
0 1.25  0
0.75 0  0
1.23661 2.76339  0
0.25 0  0
1.075 2.675  0
3.25 0  0
0 0.75  0
0 0.25  0
0.825 2.925  0
2.975 2.225  0
1.325 2.925  0
1.775 2.975  0
2.925 2.675  0
2.225 2.975  0
3.25 2  0
2.675 2.925  0
2.975 1.775  0
3.175 2.925  0
3.725 2.975  0
2.675 1.075  0
4 2.75  0
3.75 2  0
2.925 0.825  0
4 2.25  0
5.5 2  0
4.5 2  0
6 1.75  0
1.58427 2.27779  0
6 1.25  0
1.23661 1.23661  0
6.75 1  0
4 1.75  0
3.75 0  0
8.25 1  0
0 3.275  0
2.925 1.325  0
9 0.75  0
5.5 1  0
4.5 3  0
9 0.25  0
6 0.75  0
6 2.25  0
2 1.125  0
12 0  0
4 1.25  0
10 0  0
6.75 2  0
4.5 1  0
1.72221 2.41573  0
6 0.25  0
8.25 0  0
3.175 1.075  0
1.125 2  0
9 1.25  0
1.075 3.2  0
2 3.275  0
2.925 3.2  0
3.725 1.025  0
1.5375 0.7875  0
1.7625 0.5125  0
6.75 0  0
5.5 3  0
4 0.75  0
2.2375 0.5125  0
0.7875 1.5375  0
0.7875 0.5375  0
6 2.75  0
1.2875 0.5375  0
0.5375 0.7875  0
4 0.25  0
2.4875 0.2625  0
0.5375 1.2875  0
1.5125 0.2625  0
5.5 0  0
10 1  0
8.25 2  0
4.5 0  0
0.5125 1.7625  0
9 1.75  0
13 0.25  0
0.2625 1.5125  0
0.5125 0.2625  0
0.2625 0.5125  0
0.5125 2.2375  0
0.2625 2.4875  0
2.4625 0.7875  0
2.875 2  0
12 2  0
14.125 0  0
4 3.275  0
2.7125 0.5375  0
0.7875 2.4625  0
3.2125 0.5375  0
6.75 3  0
10 2  0
0.5375 2.7125  0
13 2.25  0
8.25 3  0
3.2125 2.4625  0
0.5375 3.2375  0
3.4875 0.2625  0
2.76339 2.76339  0
2 2.875  0
12 1  0
0 3.825  0
3.4875 1.7625  0
13 2.75  0
9 2.75  0
14.125 2  0
13 0.75  0
2.4625 3.2375  0
2.975 3.8  0
3.4875 2.2375  0
9 2.25  0
13 1.75  0
1.5375 3.2375  0
3.4625 2.7125  0
10 3  0
2 3.825  0
3.4625 3.2375  0
3.7375 2.4875  0
3.2125 1.5375  0
12 3  0
1.025 3.8  0
3.7375 1.5125  0
14.125 3  0
1.61466 1.17202  0
16.375 2  0
16.375 3  0
1.17202 1.61466  0
1.50961 2.09755  0
17.5 2.75  0
13 1.25  0
16.375 0  0
1.50983 1.50983  0
17.5 2.25  0
20.875 2  0
3.4625 0.7875  0
18.625 2  0
5 1.75  0
6.75 1.5  0
7.5 0.75  0
3.4625 1.2875  0
22 1.75  0
5.5 1.5  0
7.5 1.25  0
17.5 1.75  0
8.25 0.5  0
5 0.75  0
3.7375 0.5125  0
22 1.25  0
4.5 1.5  0
2 1.375  0
5.5 0.5  0
18.625 3  0
2.76339 1.23661  0
17.5 1.25  0
10 0.5  0
5 1.25  0
6.75 0.5  0
9 3.275  0
6 3.275  0
1.375 2  0
20.875 1  0
1.52628 2.66637  0
11 0.25  0
4.5 2.5  0
1.33363 2.47372  0
18.625 1  0
22 2.25  0
14.125 1  0
7.5 0.25  0
5 2.25  0
22 0.75  0
2.38534 1.17202  0
16.375 1  0
4.5 0.5  0
13 3.275  0
1.17202 2.38534  0
7.5 1.75  0
0.2625 3.5375  0
4 3.825  0
3.2125 3.5125  0
2.7125 3.5125  0
22 0.25  0
20.875 3  0
8.25 1.5  0
5 0.25  0
2.2375 3.5375  0
2.82798 2.38534  0
1.90245 2.49039  0
17.5 3.275  0
17.5 0.75  0
1.7625 3.5375  0
22 2.75  0
1.2875 3.5125  0
2.38534 2.82798  0
1.61466 2.82798  0
17.5 0.25  0
0.7875 3.5125  0
5 2.75  0
10 1.5  0
5.5 2.5  0
20.875 0  0
6.75 2.5  0
18.625 0  0
2.82798 1.61466  0
5 3.275  0
2.625 2  0
9 3.825  0
7.5 2.25  0
11 0.75  0
2.75 4.1  0
13 3.825  0
6 3.825  0
12 0.5  0
2.25 4.1  0
2.49017 2.49017  0
11 1.25  0
14.125 0.5  0
1.75 4.1  0
1.25 4.1  0
3.25 4.1  0
22 3.275  0
2 2.625  0
0.75 4.1  0
3.7375 3.5375  0
11 1.75  0
0.25 4.1  0
11 2.25  0
17.5 3.825  0
15.25 0.25  0
12 2.5  0
12 4.1  0
3.75 4.1  0
14.125 2.5  0
10 4.1  0
10 2.5  0
14.125 4.1  0
8.25 4.1  0
1.33363 1.52628  0
2.49017 1.50983  0
15.25 1.75  0
7.5 2.75  0
6.75 4.1  0
22 3.825  0
1.52628 1.33363  0
14.125 1.5  0
11 2.75  0
7.5 3.275  0
12 1.5  0
5.5 4.1  0
15.25 2.25  0
4.5 4.1  0
16.375 4.1  0
11 3.275  0
8.25 2.5  0
15.25 2.75  0
20.875 4.1  0
1.83966 1.27202  0
1.41605 2.25601  0
15.25 3.275  0
18.625 4.1  0
2.16034 1.27202  0
16.375 2.5  0
16.375 1.5  0
1.50961 1.90245  0
1.27202 1.83966  0
1.58427 1.72221  0
1.72221 1.58427  0
1.90245 1.50961  0
15.25 0.75  0
4.5 3.55  0
2.09755 1.50961  0
15.25 1.25  0
2.4875 3.8125  0
2.27779 1.58427  0
2.41573 1.72221  0
3.4875 3.8125  0
2.49039 1.90245  0
1.27202 2.16034  0
1.5125 3.8125  0
19.75 1.75  0
18.625 2.5  0
2.49039 2.09755  0
1.74399 2.58395  0
16.375 0.5  0
19.75 2.25  0
2.41573 2.27779  0
0.5125 3.8125  0
20.875 1.5  0
2.27779 2.41573  0
18.625 1.5  0
2.09755 2.49039  0
10 3.55  0
19.75 0.75  0
19.75 1.25  0
14.125 3.55  0
2.72798 1.83966  0
12 3.55  0
8.25 3.55  0
20.875 0.5  0
19.75 2.75  0
2.72798 2.16034  0
6.75 3.55  0
19.75 3.275  0
16.375 3.55  0
5.5 3.55  0
20.875 2.5  0
2.66637 2.47372  0
18.625 0.5  0
2.47372 2.66637  0
2.16034 2.72798  0
19.75 0.25  0
1.83966 2.72798  0
11 3.825  0
15.25 3.825  0
18.625 3.55  0
7.5 3.825  0
2.47372 1.33363  0
2.66637 1.52628  0
5 3.825  0
20.875 3.55  0
19.75 3.825  0
1.41605 1.74399  0
1.74399 1.41605  0
2.25601 1.41605  0
2.58395 1.74399  0
2.58395 2.25601  0
2.25601 2.58395  0
0.664062 0.664062  0
0.929688 0.679688  0
0.951563 0.951563  0
0.679688 0.929688  0
1.64844 0.648438  0
1.88281 0.632812  0
1.88594 0.885938  0
1.65781 0.907813  0
1.17969 0.679688  0
1.41406 0.664062  0
1.42969 0.929688  0
1.20156 0.951563  0
0.679688 1.17969  0
[...]
POINT_DATA 1122
SCALARS u000 DOUBLE 
LOOKUP_TABLE default
0.0506778
0.0658291
0.027218
0.0298862
0.0463879
0.0984689
0.0677816
0.0796937
0.0617429
0.0683778
0.0641892
0.0175074
0.0653598
0.0265026
0.0197856
0.0275198
0.0290764
0.028358
0.0275193
0.0218361
0.0142383
0.0217319
0.0197952
0.027287
0.0265119
0.0265249
0.0143043
0.0277318
0.0218544
0.0219946
0.0142607
0.00687246
6.76352e-05
0.00689175
0.000106221
0.0142727
0.00689031
0.000242465
0.00688281
9.8788e-05
0.0312983
0.0465743
0.0601884
0.0624692
0.0142096
0.0217226
0.0265505
0.0272269
0.000253229
0.00685483
0.133577
0.0504558
-0.0118091
0.00233817
0.0154669
0.00259056
-0.0125202
0.0637849
0.0536337
0.0777147
0.0343262
0.0275834
0.0229956
0.0230645
0.0284045
0.0353338
0.0777193
0.0527666
0.0622198
0.0272704
0.0246431
0.0251303
0.0302253
0.0179063
0.010464
0.0104788
0.0179667
0.0179713
0.0104694
0.0104377
0.017899
0.0303881
0.0251872
0.024653
0.0275367
0.00346515
0.00345902
0.00345252
0.00345041
0.0935749
0.0310782
0.00583967
0.0133376
0.0134356
0.00583664
0.0304725
0.094007
0.0485766
0.0434689
0.0842858
0.0364497
0.0606913
0.0685764
0.0559691
0.0829522
0.0645264
0.0755266
0.0756007
0.0844882
0.0638764
0.0680733
0.0645085
0.0184944
0.0292934
0.0166203
0.047736
0.0184009
0.0271424
0.0234582
0.0244502
0.0278939
0.0165532
0.0309068
0.0285873
0.0248281
0.0277858
0.0217765
0.0285914
0.0178843
0.0267402
0.0289217
0.028731
0.0243886
0.0245863
0.0253032
0.0271948
0.0219314
0.0629253
0.0267561
0.108898
0.0646267
0.0303634
0.0436395
0.0592658
0.01793
0.00743603
0.0142565
0.0179908
0.0248864
0.113369
0.0142892
0.00356342
0.0219521
0.0104558
0.0179305
0.0104809
0.0142937
0.0104518
0.0277998
0.00688339
0.00345574
0.0151581
7.71226e-05
0.00689293
0.0119975
0.00687527
0.00346263
0.0034509
0.0104705
0.00016147
7.32165e-05
0.0217792
0.0268243
0.00688794
0.0142359
0.00346262
0.0119387
0.00686414
0.0376731
0.0549921
0.062182
0.0282205
0.000158787
0.0178688
0.0245784
0.0104238
0.0269837
0.00344497
0.10806
0.00436155
-0.00751158
0.0118035
0.0120413
-0.00752956
0.0640266
0.0622877
0.0643448
0.065899
0.0579573
0.0502967
0.0446301
0.0576909
0.0721555
0.0739661
0.086716
0.0789059
0.0408534
0.0331616
0.0259945
0.0321772
0.0290328
0.0274298
0.0270688
0.0259129
0.0204745
0.0257896
0.0257813
0.0198712
0.0199367
0.0258445
0.0259191
0.0205224
0.0264011
0.0275259
0.0283128
0.0302114
0.0325661
0.0265318
0.0343833
0.0415273
0.0789122
0.0868284
0.0738535
0.0719037
0.0566038
0.0441876
0.049861
0.0566288
0.0646873
0.063156
0.0606085
0.0623059
0.0269806
0.0269252
0.0276508
0.0279711
0.0258469
0.0232611
0.0233386
0.0261094
0.0266125
0.0234566
0.023574
0.0270207
0.0293315
0.0290199
0.0299942
0.0302539
0.0198713
0.0160632
0.0160863
0.0199005
0.0123504
0.00865652
0.00866428
0.0123616
0.0123712
0.00867078
0.00867496
0.0123796
0.0199294
0.0161077
0.0161277
0.0199624
0.0199676
0.0161275
0.0161046
0.0199388
0.0123759
0.00867017
0.00865683
0.0123595
0.0123414
0.00864223
0.00862799
0.0123227
0.0199046
0.0160758
0.0160436
0.019867
0.0303153
0.030069
0.0292562
0.0295511
0.0270661
0.023591
0.0234897
0.0267239
0.026178
0.0233538
0.0232557
0.025855
0.0283549
0.0278725
0.0270508
0.0274303
0.00514489
0.00172871
0.00173799
0.00514964
0.0051546
0.00174321
0.00174669
0.00515766
0.00515406
0.00174614
0.00174188
0.00514425
0.00513354
0.00173612
0.0017249
0.005124
0.0756383
0.0764605
0.115319
0.101173
0.0274387
0.00215717
0.0348811
0.0562353
0.0141145
0.00540082
-0.00343701
0.0124714
0.0154324
0.0138979
0.0105048
0.0144942
0.014546
0.010624
0.0139825
0.0155041
0.0120705
-0.00368467
0.00550432
0.0140182
0.0557436
0.0345854
0.00146009
0.0266448
0.101447
0.115749
0.0768935
0.0757139
0.0592161
0.0363387
0.0734322
0.0381592
0.0455844
0.0619419
0.0326498
0.0682451
0.0411736
0.0947973
0.0575026
0.0515131
0.088692
0.0604991
0.0800161
0.0593918
0.0686146
0.0715804
0.0950154
0.078555
0.0204545
0.0785535
0.0680562
0.0307046
0.0718513
0.0631458
0.0657233
0.0641931
0.0733591
0.0281237
0.0658622
0.0641521
0.0677923
0.0170045
0.058567
0.0354511
0.0168614
0.0200664
0.0203048
0.0189087
0.0169327
0.0225968
0.0263888
0.0188818
0.0276482
0.0259373
0.0250971
0.0282374
0.0301407
0.0303972
0.028934
0.0823575
0.0280792
0.0660049
0.0263449
0.0281662
0.026662
0.0233928
0.0646412
0.0168113
0.0218019
0.0283066
0.0289577
0.0217513
0.0270459
0.0290082
0.0182775
0.0160528
0.0274726
0.0198588
0.0270934
0.0286504
0.0222668
0.0265784
0.0232414
0.0226065
0.105421
0.021881
0.0607742
0.0381625
0.0256141
0.0262585
0.0516482
0.0486785
0.0258107
0.0285799
0.0272957
0.0383689
0.0808696
0.0627724
0.0282817
0.0577208
0.0653281
0.0269807
0.0365335
0.0729161
0.0545408
0.0267915
0.0199138
0.0235995
0.0266554
0.0815992
0.0219739
0.0142467
0.0759332
0.0633491
0.0644741
0.0816492
0.0758686
0.0279026
0.0161121
0.0161311
0.012345
0.0277521
0.0313832
0.080961
0.0282419
0.0264542
0.0199703
0.0727342
0.0142999
0.0234202
0.0197076
0.0641023
0.0279609
0.016496
0.0176077
0.0160966
0.0624359
0.0231892
0.0142754
0.0219042
0.0123798
0.014264
0.0284284
0.031959
0.0232558
0.0219865
0.0143018
0.0508007
0.0234801
0.0199209
0.0457293
0.0268678
0.0256782
0.0196563
0.01609
0.0589386
0.0255985
0.0123501
0.0421528
0.00867394
0.00864932
0.088736
0.127088
0.00687788
0.014283
0.00865323
0.0574111
0.00688836
0.00174699
0.0263866
0.00515685
0.0307185
0.0268533
0.0247144
0.0233758
7.04141e-05
0.0296162
0.024977
0.00689319
0.0232957
0.0278092
0.027402
8.86769e-05
0.0298873
-0.00315646
0.0271902
0.00513875
0.016554
0.00689171
0.0198878
0.029467
0.0259442
0.0218119
0.0271938
0.121711
0.00174075
0.0488018
0.0178939
0.0300114
0.0775325
0.00515208
6.84445e-05
0.0123662
0.0246019
0.0307971
0.000130978
0.0117218
0.00866752
0.0274106
0.0142475
0.0890433
0.0252489
0.0629017
0.0277036
0.0291805
0.0324778
0.000203884
0.0017392
0.0235217
0.0269522
0.0390346
0.0147829
-0.00791568
0.00686784
0.00688908
0.0483113
8.26777e-05
0.0565046
0.0114201
0.0414404
0.00688556
0.0612599
0.0297323
0.019947
0.029769
0.00172205
0.0269379
0.00514391
0.01472
0.028123
0.014575
0.0217478
0.0252814
0.0179168
0.0340754
0.0142218
0.026633
0.0160762
0.041953
0.00910447
0.0179472
0.0123571
0.0510707
0.0580473
0.0293887
0.000125305
-0.00368021
0.0614928
0.0280868
0.0179832
0.062477
0.0179864
0.00685939
0.0104596
0.0161177
0.016029
0.0275446
0.0123685
0.0198502
0.0199554
0.0123143
0.0232299
0.077292
0.00899884
0.0104814
0.0250449
0.0258087
0.00020661
0.0491499
0.0123762
0.0179511
0.0247459
0.016119
0.0268938
0.0104768
0.0270843
0.00862239
0.0179134
0.0235503
0.0104607
0.00171571
0.0150099
0.0985371
0.0104441
0.0051215
0.00415188
0.00866408
0.00867359
0.126537
0.108336
0.0816373
0.0226774
-0.00702831
0.010467
0.0278226
-0.0110475
0.0104747
0.0375751
-0.00284811
0.00769899
0.0290125
0.0144797
0.10868
0.053588
0.00345739
0.0051496
0.014627
0.0148977
0.00866098
0.00345405
0.00797524
0.061628
0.00174533
-0.00269613
0.00515671
-0.0114355
0.0198882
0.00346426
0.00346078
0.0123332
0.0145242
0.0160615
0.0232991
0.00173499
0.00345153
0.0146017
0.0259738
0.00345081
0.00863565
0.0273437
0.0017443
0.0121214
0.00514733
0.0094462
0.00387504
0.00346452
0.0143118
0.0178822
0.01043
0.0051288
0.0246
0.0093682
0.0120074
0.0272043
0.00173259
0.00344817
0.0979436
0.0155139
0.000794399
0.0122735
0.0123913
0.0008057
0.0638258
0.0623165
0.0649819
0.0664043
0.0499119
0.0440395
0.0371462
0.0458413
0.0594632
0.0552889
0.0544817
0.0610232
0.070833
0.0704194
0.0782834
0.0763291
0.0818071
0.0870457
0.0927322
0.0851823
0.0383479
0.0334774
0.0253333
0.0298433
0.0297667
0.0255598
0.034078
0.038655
0.0852261
0.0928231
0.0872288
0.0818849
0.076292
0.0783391
0.0701651
0.070536
0.060081
0.0535753
0.0542356
0.0581851
0.0451357
0.0367577
0.0438836
0.0492555
0.0654849
0.0640735
0.060944
0.0624124
0.0696487
0.0706234
0.0837161
0.0800604
0.068784
0.0618649
0.087415
0.0863825
0.104604
0.109881
0.123156
0.116371
0.0926928
0.098606
0.108643
0.101401
0.0267612
0.0161572
0.0289217
0.0389509
0.00400239
-0.0051157
0.00311147
0.0149284
0.0329852
0.0182322
0.0389787
0.0534305
0.0524775
0.045667
0.060641
0.0628454
0.00186412
-0.00488722
-0.00710356
0.000204174
0.0152805
0.00869819
0.00957071
0.0186828
0.0180541
0.00908196
0.0084884
0.0148869
-0.000183353
-0.00753066
-0.00509077
0.00173548
0.0623943
0.0603449
0.0451288
0.051821
0.053293
0.0388311
0.0177007
0.0325367
0.0142678
0.00238149
-0.00578227
0.00337825
0.0381283
0.0282033
0.0154521
0.0259406
0.10154
0.108811
0.0989827
0.0929828
0.116578
0.123405
0.110484
0.105093
0.086832
0.0880152
0.0621374
0.0689506
0.0802127
0.0840032
0.0706093
0.0694668
0.104961
0.0654976
0.00997607
0.0689654
0.00457229
0.00465801
0.0669933
0.0214813
0.0625168
0.0302706
0.0956217
0.0361109
0.0224374
0.0237498
0.112596
0.0674368
0.00331703
0.0658675
0.00332117
0.0465015
0.0563285
0.112782
0.0229181
0.00935384
0.0342704
0.061952
0.0137794
0.101966
0.0819823
0.0210815
0.0344437
0.095559
0.118591
0.0624861
0.0495999
0.0954512
0.0333551
0.0661869
0.0127794
-0.00232404
0.054333
0.0461793
0.0423539
-0.0103363
0.0785811
0.0411798
0.0610708
0.0900066
0.0686626
0.00423296
-0.00156345
0.00932098
0.061956
0.0855136
0.118558
-0.00403249
0.120269
-0.0105963
0.0902538
0.0654576
0.018473
0.0786703
0.0221851
0.05265
0.0511561
0.0682113
0.011743
0.0530795
0.0632786
0.0429097
0.0363476
0.0792821
0.099361
0.120501
0.0535814
0.0556772
0.0645565
0.0100134
0.0414631
-0.00335859
0.0181579
0.0753154
0.0773555
0.0767435
-0.00336193
0.0796569
0.0958887
0.0821998
0.0311144
0.0796843
0.0114934
-0.00261792
0.0489918
0.0503263
0.0793223
0.0460737
0.0336661
0.0752267
0.0409189
0.0827671
0.0617318
0.0962825
0.0631611
0.0592061
0.0656541
0.0669522
0.0707463
0.0765904
0.0770293
0.0318811
0.0580912
0.041328
0.0633844
-0.0044167
0.0412091
0.0659928
0.131926
0.0822757
0.074083
0.0517842
0.0600113
-0.00219709
0.0503392
0.0432043
0.070911
0.0534955
0.0130025
0.0823007
0.0348883
0.0905414
0.0883123
0.0216357
0.0597307
0.0412776
0.0231985
0.00846484
0.0829149
0.0121412
0.109295
0.118095
0.111715
0.0747124
0.104704
-0.00667697
0.0704038
0.0266452
0.000311381
0.00808205
0.0280443
-0.00188717
0.0660878
0.124891
0.0373585
-0.00651221
0.0911263
0.0883764
0.108225
0.0459238
0.0879404
0.0907014
0.0234147
0.0863386
0.0494993
0.0740004
0.0267019
0.0706339
0.105011
0.112099
0.0238096
0.057151
0.00691067
0.0407753
-0.0109412
0.0651043
-0.00678908
0.0371842
0.0481468
0.0873898
0.054837
0.0469017
0.107667
0.0395606
0.050539
0.0633533
0.0546356
0.00760522
0.0857582
0.0650878
0.0242889
0.00878074
0.00773716
8.12311e-05
0.0617398
0.0773903
0.0123852
0.0841107
0.0575136
-0.0016701
0.0577244
0.119331
0.0355779
0.0704618
0.00778997
0.0619743
0.0735928
0.0208964
0.0914919
-0.00723223
0.0351167
0.0839389
-0.00175436
0.0151081
0.0865936
0.0588717
0.0409972
0.00862835
0.0367095
0.0622113
0.0295091
0.00202123
0.0743252
0.0323464
0.0581081
0.0979732
0.117388
0.0149105
0.0451695
0.0840132
0.131631
0.0669206
0.0343935
-0.0101153
0.0842332
0.0773985
-0.0119843
0.0734425
0.0853913
0.0161634
0.041337
0.0460919
0.0459754
0.0400453
0.0299754
0.0639268
0.0578852
0.0664593
-0.00320665
0.0602628
0.098221
0.0617123
0.022161
0.0538497
-0.0125396
0.0474879
0.0703835
0.00470701
0.0156918
0.0702845
0.101732
0.0575585
0.096126
0.074325
0.0620894
0.0315011
0.0630704
0.0692301
0.0310916
0.0218362
0.0335915
0.0634039
0.0674355
0.0143142
0.0503971
0.102162
0.104809
0.0978893
0.0751804
0.0703827
0.0231707
0.0931585
0.0579352
0.0229936
0.0980136
0.00150264
0.0276914
0.100009


SCALARS u001 DOUBLE 
LOOKUP_TABLE default
0
0.259539
0.387688
0
0
0.216289
0.235574
0.299822
0
0.221297
0
-0.0159032
0.269497
0.393497
0.333556
0.324467
0.182903
0.05061
0.266558
0.233506
0
0
0.333822
0.319978
0
0
0.281653
0.285379
0.255055
0.252868
0.242802
0.238025
0.297117
0.292738
0.221221
0.223307
0.220948
0
0
0.236684
0
0
0
0
0
0
0
0
0
0
0
0
0
0
0
0
0
0.143759
0.226325
0.271347
0.310487
0.288138
0.133767
0.125184
0.301482
0.31133
0.277717
0.230952
0.154007
0.196393
0.153838
0.249269
0.215003
0.139375
0.131945
0.270934
0.262546
0.272557
0.280487
0.146225
0.156696
0.20881
0.254958
0.174832
0.220704
0.129676
0.274978
0.28342
0.142045
0.185305
0.349741
0.244826
0.0156993
0.0130796
0.242648
0.35401
0.187329
0.320614
0.272628
0.24166
0
0.181476
0.23292
0
0.283872
0.281576
0.285544
0.278406
0.246246
0
0.245798
0.128495
0.377499
0.319868
0.0772476
0.328348
0.38078
0
0.00924087
0.328112
0.165842
0.0832869
0.128058
0.236113
0.244584
0.175081
0.146138
0.290886
0
0.169756
0.30376
0.235456
0.327998
0
0.228454
0.246476
0.25603
0.139381
0
0
0.276775
0.325182
0.274004
0.189621
0.226547
0.348689
0.134908
0.271091
0.266164
0.130099
0.277329
0
0.264768
0
0.247187
0.288624
0.267298
0.239816
0.266559
0.282311
0.295258
-0.0125312
0.276388
0.273339
0.1587
0.35114
0.220834
0.237006
0.221615
0.129907
0.284387
0.165311
0.193254
0.130332
0.150656
0
0.163633
0.143508
0
0
0
0
0.141645
0
0
0
0
0
0
0
0
0
0
0
0.0715575
0.0927538
0.20885
0.184075
0.127614
0.163962
0.311902
0.252951
0.255668
0.255824
0.25849
0.290792
0.192238
0.201666
0.377615
0.36121
0.182604
0.149555
0.331255
0.359893
0.228805
0.257091
0.0656246
0.025229
0.0203663
0.0589091
0.251124
0.222604
0.368124
0.344659
0.163048
0.192153
0.36428
0.383198
0.206129
0.193724
0.294236
0.261295
0.26438
0.265999
0.261977
0.316902
0.165745
0.131716
0.197308
0.220507
0.0986507
0.0778902
0.11456
0.0940078
0.247018
0.287175
0.0848095
0.0811962
0.2031
0.218478
0.26031
0.253637
0.245559
0.220898
0.269131
0.268248
0.18043
0.125377
0.0773644
0.0742792
0.187092
0.193188
0.0718517
0.0703836
0.180969
0.183164
0.250343
0.251043
0.284981
0.280316
0.250318
0.249917
0.273067
0.261845
0.266321
0.278051
0.265181
0.265753
0.285255
0.289665
0.264657
0.264869
0.201603
0.197942
0.0783187
0.0805351
0.215167
0.207227
0.0838908
0.0879337
0.118421
0.175947
0.27236
0.266547
0.220567
0.248389
0.267937
0.27112
0.244251
0.227027
0.0927363
0.0974428
0.308252
0.272654
0.108216
0.12964
0.0694037
0.0683547
0.178664
0.179662
0.251576
0.251859
0.28935
0.287751
0.292152
0.293501
0.26398
0.264372
0.195518
0.193672
0.0752615
0.0767809
0.254097
0.18386
0.0711231
0.188705
0.379401
0.254904
0.276394
0.301537
0.291233
0.0820838
0.16483
0.368199
-0.00208988
-0.00461992
0.0143158
0.139319
0.133434
0.0124421
-0.00497509
-0.00436515
0.370296
0.163711
0.0790778
0.288943
0.308056
0.27955
0.257115
0.384419
0.190275
0.0712987
0.185541
0.259329
0.283144
0.361795
0.2588
0.337107
0.177515
0.230914
0
0.24229
0
0.220968
0.25452
0
0.259915
0.110717
0.296517
0
0.225454
0.265021
0.223199
0.297145
0.392949
0.293575
0.239228
0.197913
0.254313
0
0.280242
0
0.265958
0
0.179358
0.0687091
0.253877
0.00474003
0.292084
0.368416
0.20285
0.397414
-0.00629373
0.354065
0.00819797
0.329002
0.326863
0.352256
0.261518
0.0278272
0.371766
0.0816241
0.157861
0.09207
0.200245
0
0.265186
0.272886
0.253507
0.0887423
0
0.238231
0.192876
0.208681
0.198168
0.278054
0.313441
0.0794785
0.232862
0.197547
0.391214
0
0.266496
0
0.209646
0.304757
0
0.0889781
0
0.329561
0.180907
0.251698
0.241313
0.340675
0.378417
0.325036
0.281512
0.251241
0
0.294359
0.3137
0.295013
0.259313
0.158991
0.272484
0.202029
0.194812
0.133497
0.200203
0.256431
0.14618
0
0.229172
0.242176
0
0.2797
0.25373
0.0730437
0.277337
0.0800608
0.132916
0.282882
0.284227
0.377114
-0.0160439
0.276959
0
0.330443
0.318433
0.264954
0.306099
0.274359
0.26323
0.265999
0.282053
0.259953
0.102798
0.207464
0.165737
0.259159
0.395366
0.224585
0.0750892
0.0446015
0.265129
0.266728
0.285467
0.185071
0.381462
0.204633
0.0386565
0.257489
0.277048
0.288609
0.238286
0.250332
0.178952
0.357037
0.146077
0.110307
0.244669
0.115836
0.155229
0.240944
0.34288
0.290746
0.23856
0.221038
0
0.264833
0.250177
0
0.25176
0.291352
0.295524
0.346515
0.293797
0.155986
0.244172
0.209471
0.244685
0.290941
0.227354
0.256429
0.286811
0.149671
0.264929
0.268183
0.253238
0.197645
0.22281
0.180811
0.236951
0.263155
0.25165
0.142186
0.269868
0.159574
0.221187
0.258992
0.058243
0.219881
0.317266
0.0758262
0.189377
0.239252
0.220338
0.294979
0.222104
0.0828564
0.150025
0.180141
0.330646
0.220944
0.218034
0.204372
0.224351
0.235157
0.143606
0.147969
0.315421
0.321168
0.0702621
0.235702
0.252981
0.102021
0.295708
0.0402721
0
0.196981
0.180611
0.253905
0.265055
0.208607
0.330336
0.348608
0.0700917
0.168417
0.270566
0.259431
0.223801
0
0.24718
0
0.0447304
0.288967
-0.00533067
0.0905767
0.236672
0.189831
0
0.0821946
0.102458
0.136865
0
0.051682
0.249998
0.133034
0
0
0
0.194786
0.223474
0
0.285132
0.268217
0
0.273052
0.0777394
0.0711669
0.27516
0
0
0.278974
0
0.269059
0
0
0.235928
0.0547784
0.283112
0.269424
0
0.0771709
0.312864
0.269149
0.265447
0.234333
0.26505
0
0.287933
0
0
0.210844
0.260497
0.264955
0
0.361461
0.120268
0.199767
0
0.293638
0.281307
0.272045
0
0.140396
0
0
0
0.182109
0.24126
0
0.250889
0.202861
0
0
0.17758
0
0.141275
0.149045
0.28915
0.282545
0
0.283815
0.130774
0.29342
0
0.0862768
0.274893
0
0.273845
0
0.160387
0.180016
0.25236
0.147999
-0.0063561
0.15338
0.169696
0.128096
0.264791
-0.00756887
0.181783
0.195411
0.144456
0.205058
0.283108
0.0637821
0.129341
0.191544
0.293682
0.069703
0.365188
0.0859135
0.0794555
0.142069
0.0948618
0.19539
0.0680099
0.116825
0.140095
0.0769055
0.119531
0.280663
0.120738
-0.000734697
-0.00167634
0.118209
0.177303
0.196269
0.236777
0.220582
0.269425
0.295288
0.353755
0.32142
0.218353
0.242252
0.28648
0.258572
0.247491
0.254533
0.254766
0.261642
0.26833
0.246511
0.240727
0.271698
0.319181
0.339106
0.389288
0.378061
0.38282
0.394375
0.340617
0.32089
0.273204
0.242005
0.250358
0.272847
0.269201
0.26129
0.263873
0.258157
0.268747
0.295206
0.2492
0.227082
0.32831
0.359153
0.298197
0.274236
0.233056
0.248171
0.206394
0.188449
0.265136
0.264334
0.226955
0.246714
0.246249
0.148579
0.0881072
0.186182
0.129381
0.0431821
0.0199419
0.0967359
0.218279
0.184127
0.157717
0.199512
0.385842
0.380691
0.367333
0.353884
0.311045
0.134191
0.162194
0.330653
0.321801
0.183777
0.188945
0.289099
0.311215
0.329612
0.29024
0.27777
0.207876
0.069341
0.101157
0.266096
0.37233
0.315351
0.361414
0.393319
0.397469
0.363676
0.315188
0.374427
0.266487
0.10063
0.0680122
0.20614
0.285973
0.295958
0.334726
0.318402
0.292711
0.191081
0.186008
0.325558
0.334179
0.163833
0.134787
0.313409
0.360083
0.371988
0.384593
0.391222
0.20046
0.158326
0.186035
0.221173
0.0969827
0.0198579
0.0431127
0.130269
0.188057
0.0885005
0.149892
0.249291
0.25176
0.230395
0.269477
0.272529
0.181491
0.275917
0.35683
0.269978
0.265324
0.322584
0.260198
0.363542
0.278962
0.383543
0.157465
0.331428
0.399049
0.331762
0.129882
0
0.182782
0.267271
0.180429
0.286612
0.23763
0.130313
0.39305
0.179752
0
0.196559
0.386865
0.199883
0.238507
0.392969
0.363416
0.203153
0
0.258952
0.321345
0
0.370525
0.218229
0
0
0.30041
0.265217
0.341928
0
0.25178
0.306036
0.208461
0.230456
0.236606
0.32387
0.237065
0.359995
0.27519
0.273459
0.028706
0.190868
0.0589836
0
0.233839
0.282327
0.383597
0.257626
0.398035
0.255704
0.238783
0.248856
0.348976
0.314297
0.151375
0.311031
0.30275
0.265748
0.0646019
0.0590467
0.308759
0.214177
0.169285
0.177703
0.349071
0.0603691
0.386975
0.263889
0.219503
0.251551
0.0591046
0.275523
0.20556
0.242751
0.3438
0.280299
0.350026
0.150193
0.327443
0.303538
0.271796
0.261934
0.368775
0.271858
0.28382
0.251086
0.170233
0
0.180735
0.191752
0.276264
0.213866
0.244675
0.247284
0.217052
0.346396
0.271281
0.338679
0.218759
0.190588
0.32553
0.227642
0
0.281786
0.256196
0.261602
0.241026
0.23853
0.184871
0.307346
0.250457
0.30891
0.37804
0.283377
0.350441
0.242606
0.258613
0.377824
0.217882
0.308345
0.377306
0.323474
0.256256
0
0.157856
0.0288258
0.108549
0.117303
0.16706
0.122863
0.255898
0.384394
0.235594
0.338056
0.189748
0.149039
0.226631
0.0182049
0.350273
0.0846684
0.20564
0.260017
0.0912587
0.332309
0.150352
0.245161
0.381121
0.232871
0.311361
0.264113
0.389085
0.260515
0.168289
0.109074
0.283221
0.280799
0.270945
0.344718
0
0.239587
0.0837211
0.303519
0.296915
0.149198
0.266649
0.282826
0.0908779
0.336876
0.242428
0.185867
0.219779
0.268172
0.213074
0.200605
0.279995
0.287736
0.339087
0.234897
0.161212
0.258487
0.381362
0.258933
0.22972
0.139928
0.297544
0
0.329881
0.262909
0.326536
0.271558
0.255685
0.382175
0.208309
0.122892