# vtk DataFile Version 4.2 
output from GascoigneStd
ASCII
DATASET UNSTRUCTURED_GRID
POINTS 10207 DOUBLE 
0 0  0
1 0  0
1 1  0
0 1  0
0.5 0.5  0
0.5 0  0
1 0.5  0
0 0.5  0
0.5 1  0
0.25 0.25  0
0.75 0.25  0
0.75 0.75  0
0.25 0.75  0
0.25 0  0
0.75 0  0
0 0.25  0
1 0.25  0
1 0.75  0
0.5 0.25  0
0.75 0.5  0
0.75 1  0
0 0.75  0
0.25 0.5  0
0.25 1  0
0.5 0.75  0
0.125 0.125  0
0.375 0.125  0
0.375 0.375  0
0.125 0.375  0
0.625 0.125  0
0.875 0.125  0
0.875 0.375  0
0.625 0.375  0
0.625 0.625  0
0.875 0.625  0
0.875 0.875  0
0.625 0.875  0
0.125 0.625  0
0.375 0.625  0
0.375 0.875  0
0.125 0.875  0
0.125 0  0
0 0.125  0
0.875 0  0
1 0.125  0
0.375 0  0
0.625 0  0
1 0.875  0
0.25 0.125  0
0.5 0.375  0
0 0.375  0
1 0.375  0
0.875 1  0
0.5 0.125  0
0.625 0.5  0
1 0.625  0
0.125 0.25  0
0.75 0.125  0
0 0.875  0
0.875 0.5  0
0.375 0.5  0
0.875 0.25  0
0.125 1  0
0.375 0.25  0
0.625 0.25  0
0.5 0.625  0
0.875 0.75  0
0.625 1  0
0 0.625  0
0.125 0.5  0
0.75 0.375  0
0.75 0.625  0
0.25 0.375  0
0.75 0.875  0
0.375 1  0
0.5 0.875  0
0.125 0.75  0
0.25 0.625  0
0.625 0.75  0
0.25 0.875  0
0.375 0.75  0
0.0625 0.0625  0
0.1875 0.0625  0
0.1875 0.1875  0
0.0625 0.1875  0
0.0625 0.3125  0
0.1875 0.3125  0
0.1875 0.4375  0
0.0625 0.4375  0
0.8125 0.0625  0
0.9375 0.0625  0
0.9375 0.1875  0
0.8125 0.1875  0
0.8125 0.3125  0
0.9375 0.3125  0
0.9375 0.4375  0
0.8125 0.4375  0
0.5625 0.5625  0
0.6875 0.5625  0
0.6875 0.6875  0
0.5625 0.6875  0
0.8125 0.5625  0
0.9375 0.5625  0
0.9375 0.6875  0
0.8125 0.6875  0
0.8125 0.8125  0
0.9375 0.8125  0
0.9375 0.9375  0
0.8125 0.9375  0
0.3125 0.8125  0
0.4375 0.8125  0
0.4375 0.9375  0
0.3125 0.9375  0
0.0625 0.8125  0
0.1875 0.8125  0
0.1875 0.9375  0
0.0625 0.9375  0
0.0625 0  0
0 0.0625  0
0.9375 0  0
1 0.0625  0
1 0.9375  0
0.1875 0  0
0.9375 1  0
0.25 0.1875  0
0 0.1875  0
0 0.4375  0
0.8125 0  0
1 0.4375  0
0.5625 0.5  0
1 0.1875  0
0.25 0.0625  0
1 0.5625  0
0 0.9375  0
1 0.8125  0
0.1875 0.25  0
0 0.3125  0
0.9375 0.5  0
0.0625 1  0
0.125 0.0625  0
0.0625 0.125  0
0.75 0.1875  0
1 0.3125  0
0.5 0.5625  0
0.0625 0.25  0
0.75 0.0625  0
0.8125 0.25  0
1 0.6875  0
0.8125 1  0
0.1875 0.125  0
0.875 0.0625  0
0.6875 0.5  0
0.9375 0.125  0
0.0625 0.5  0
0.9375 0.25  0
0.8125 0.75  0
0.0625 0.375  0
0.8125 0.5  0
0 0.8125  0
0.75 0.3125  0
0.125 0.1875  0
0.25 0.3125  0
0.9375 0.375  0
0.75 0.6875  0
0.9375 0.875  0
0.4375 1  0
0.9375 0.75  0
0.5 0.9375  0
0.125 0.3125  0
0.75 0.8125  0
0.1875 1  0
0.8125 0.125  0
0.625 0.5625  0
0.875 0.9375  0
0.1875 0.75  0
0.75 0.4375  0
0.6875 0.75  0
0.5 0.6875  0
0.9375 0.625  0
0.875 0.4375  0
0.75 0.5625  0
0.1875 0.5  0
0.875 0.1875  0
0.25 0.8125  0
0.875 0.3125  0
0.3125 0.75  0
0.875 0.5625  0
0.75 0.9375  0
0.25 0.4375  0
0.125 0.4375  0
0.3125 1  0
0.0625 0.75  0
0.5625 0.625  0
0.0625 0.875  0
0.5 0.8125  0
0.1875 0.375  0
0.875 0.6875  0
0.8125 0.375  0
0.875 0.8125  0
0.5625 0.75  0
0.25 0.9375  0
0.125 0.9375  0
0.6875 0.625  0
0.4375 0.75  0
0.8125 0.625  0
0.8125 0.875  0
0.625 0.6875  0
0.375 0.9375  0
0.4375 0.875  0
0.125 0.8125  0
0.3125 0.875  0
0.375 0.8125  0
0.1875 0.875  0
0.3125 0.0625  0
0.4375 0.0625  0
0.4375 0.1875  0
0.3125 0.1875  0
0.3125 0.3125  0
0.4375 0.3125  0
0.4375 0.4375  0
0.3125 0.4375  0
0.5625 0.0625  0
0.6875 0.0625  0
0.6875 0.1875  0
0.5625 0.1875  0
0.5625 0.3125  0
0.6875 0.3125  0
0.6875 0.4375  0
0.5625 0.4375  0
0.5625 0.8125  0
0.6875 0.8125  0
0.6875 0.9375  0
0.5625 0.9375  0
0.0625 0.5625  0
0.1875 0.5625  0
0.1875 0.6875  0
0.0625 0.6875  0
0.3125 0.5625  0
0.4375 0.5625  0
0.4375 0.6875  0
0.3125 0.6875  0
0.15625 0.28125  0
0.21875 0.28125  0
0.21875 0.34375  0
0.15625 0.34375  0
0.15625 0.40625  0
0.21875 0.40625  0
0.21875 0.46875  0
0.15625 0.46875  0
0.90625 0.03125  0
0.96875 0.03125  0
0.96875 0.09375  0
0.90625 0.09375  0
0.90625 0.15625  0
0.96875 0.15625  0
0.96875 0.21875  0
0.90625 0.21875  0
0.78125 0.28125  0
0.84375 0.28125  0
0.84375 0.34375  0
0.78125 0.34375  0
0.90625 0.28125  0
0.96875 0.28125  0
0.96875 0.34375  0
0.90625 0.34375  0
0.78125 0.40625  0
0.84375 0.40625  0
0.84375 0.46875  0
0.78125 0.46875  0
0.53125 0.53125  0
0.59375 0.53125  0
0.59375 0.59375  0
0.53125 0.59375  0
0.65625 0.53125  0
0.71875 0.53125  0
0.71875 0.59375  0
0.65625 0.59375  0
0.78125 0.53125  0
0.84375 0.53125  0
0.84375 0.59375  0
0.78125 0.59375  0
0.78125 0.65625  0
0.84375 0.65625  0
0.84375 0.71875  0
0.78125 0.71875  0
0.78125 0.78125  0
0.84375 0.78125  0
0.84375 0.84375  0
0.78125 0.84375  0
0.28125 0.78125  0
0.34375 0.78125  0
0.34375 0.84375  0
0.28125 0.84375  0
0.40625 0.78125  0
0.46875 0.78125  0
0.46875 0.84375  0
0.40625 0.84375  0
0.15625 0.78125  0
0.21875 0.78125  0
0.21875 0.84375  0
0.15625 0.84375  0
0.4375 0  0
0.5625 0  0
0.5 0.4375  0
0.5 0.0625  0
0.3125 0  0
0.6875 0  0
0.4375 0.5  0
0.5 0.3125  0
0.5 0.1875  0
0.375 0.0625  0
0.3125 0.25  0
0.6875 0.25  0
0.3125 0.125  0
0 0.5625  0
0.5625 1  0
0.625 0.0625  0
0.4375 0.375  0
0.4375 0.125  0
0.5625 0.375  0
0.4375 0.25  0
0.5625 0.25  0
0.5625 0.125  0
0.3125 0.5  0
0.625 0.4375  0
0.6875 0.125  0
0.6875 1  0
0.375 0.4375  0
0 0.6875  0
0.25 0.6875  0
0.375 0.1875  0
0.375 0.3125  0
0.625 0.1875  0
0.625 0.3125  0
0.375 0.5625  0
0.25 0.5625  0
0.3125 0.375  0
0.6875 0.375  0
0.4375 0.625  0
0.625 0.9375  0
0.0625 0.625  0
0.125 0.5625  0
0.6875 0.875  0
0.5625 0.875  0
0.125 0.6875  0
0.1875 0.625  0
0.625 0.8125  0
0.3125 0.625  0
0.375 0.6875  0
0.96875 0  0
1 0.03125  0
0.53125 0.5  0
0.21875 0.25  0
1 0.21875  0
0.5 0.53125  0
0.78125 0.25  0
1 0.28125  0
0.90625 0  0
1 0.09375  0
0.78125 0.75  0
0.75 0.28125  0
0.71875 0.5  0
0.96875 0.25  0
0.25 0.28125  0
0.75 0.71875  0
1 0.15625  0
0.78125 0.5  0
0.75 0.78125  0
0.875 0.09375  0
0.90625 0.125  0
0.59375 0.5  0
0.21875 0.75  0
0.15625 0.25  0
0.90625 0.375  0
1 0.34375  0
0.875 0.03125  0
0.75 0.46875  0
0.25 0.78125  0
0.96875 0.125  0
0.125 0.34375  0
0.28125 0.75  0
0.75 0.53125  0
0.21875 0.5  0
0.65625 0.5  0
0.625 0.59375  0
0.84375 0.25  0
0.5 0.59375  0
0.9375 0.03125  0
0.875 0.40625  0
0.96875 0.0625  0
0.25 0.46875  0
0.875 0.15625  0
0.96875 0.375  0
0.875 0.34375  0
0.90625 0.25  0
0.84375 0.5  0
0.125 0.40625  0
0.5 0.78125  0
0.875 0.59375  0
0.84375 0.75  0
0.96875 0.1875  0
0.1875 0.28125  0
0.15625 0.375  0
0.125 0.28125  0
0.59375 0.625  0
0.625 0.53125  0
0.5625 0.53125  0
0.46875 0.75  0
0.84375 0.375  0
0.75 0.34375  0
0.875 0.65625  0
0.875 0.84375  0
0.25 0.34375  0
0.75 0.65625  0
0.65625 0.625  0
0.96875 0.3125  0
0.84375 0.625  0
0.875 0.46875  0
0.8125 0.28125  0
0.84375 0.875  0
0.53125 0.5625  0
0.90625 0.0625  0
0.75 0.84375  0
0.9375 0.09375  0
0.875 0.21875  0
0.9375 0.15625  0
0.875 0.53125  0
0.75 0.40625  0
0.875 0.28125  0
0.9375 0.21875  0
0.21875 0.3125  0
0.40625 0.875  0
0.9375 0.28125  0
0.34375 0.875  0
0.6875 0.53125  0
0.125 0.84375  0
0.375 0.84375  0
0.15625 0.5  0
0.15625 0.75  0
0.75 0.59375  0
0.78125 0.3125  0
0.15625 0.875  0
0.8125 0.46875  0
0.15625 0.3125  0
0.9375 0.34375  0
0.53125 0.625  0
0.8125 0.53125  0
0.125 0.46875  0
0.8125 0.71875  0
0.8125 0.78125  0
0.25 0.40625  0
0.25 0.84375  0
0.875 0.71875  0
0.875 0.78125  0
0.34375 0.75  0
0.78125 0.6875  0
0.78125 0.375  0
0.21875 0.375  0
0.1875 0.46875  0
0.5 0.84375  0
0.59375 0.5625  0
0.65625 0.5625  0
0.78125 0.4375  0
0.71875 0.625  0
0.90625 0.1875  0
0.78125 0.8125  0
0.78125 0.625  0
0.84375 0.4375  0
0.21875 0.4375  0
0.15625 0.4375  0
0.84375 0.3125  0
0.78125 0.875  0
0.71875 0.5625  0
0.90625 0.3125  0
0.78125 0.5625  0
0.1875 0.34375  0
0.1875 0.40625  0
0.46875 0.875  0
0.40625 0.75  0
0.125 0.78125  0
0.84375 0.5625  0
0.1875 0.78125  0
0.28125 0.875  0
0.5625 0.59375  0
0.8125 0.34375  0
0.375 0.78125  0
0.21875 0.875  0
0.28125 0.8125  0
0.8125 0.40625  0
0.3125 0.78125  0
0.21875 0.8125  0
0.84375 0.6875  0
0.6875 0.59375  0
0.84375 0.8125  0
0.46875 0.8125  0
0.8125 0.59375  0
0.8125 0.65625  0
0.8125 0.84375  0
0.4375 0.78125  0
0.4375 0.84375  0
0.3125 0.84375  0
0.34375 0.8125  0
0.40625 0.8125  0
0.15625 0.8125  0
0.1875 0.84375  0
0.03125 0.03125  0
0.09375 0.03125  0
0.09375 0.09375  0
0.03125 0.09375  0
0.15625 0.03125  0
0.21875 0.03125  0
0.21875 0.09375  0
0.15625 0.09375  0
0.15625 0.15625  0
0.21875 0.15625  0
0.21875 0.21875  0
0.15625 0.21875  0
0.03125 0.15625  0
0.09375 0.15625  0
0.09375 0.21875  0
0.03125 0.21875  0
0.03125 0.28125  0
0.09375 0.28125  0
0.09375 0.34375  0
0.03125 0.34375  0
0.03125 0.40625  0
0.09375 0.40625  0
0.09375 0.46875  0
0.03125 0.46875  0
0.78125 0.03125  0
0.84375 0.03125  0
0.84375 0.09375  0
0.78125 0.09375  0
0.78125 0.15625  0
0.84375 0.15625  0
0.84375 0.21875  0
0.78125 0.21875  0
0.90625 0.40625  0
0.96875 0.40625  0
0.96875 0.46875  0
0.90625 0.46875  0
0.65625 0.65625  0
0.71875 0.65625  0
0.71875 0.71875  0
0.65625 0.71875  0
0.53125 0.65625  0
0.59375 0.65625  0
0.59375 0.71875  0
0.53125 0.71875  0
0.90625 0.53125  0
0.96875 0.53125  0
0.96875 0.59375  0
0.90625 0.59375  0
0.90625 0.65625  0
0.96875 0.65625  0
0.96875 0.71875  0
0.90625 0.71875  0
0.90625 0.78125  0
0.96875 0.78125  0
0.96875 0.84375  0
0.90625 0.84375  0
0.90625 0.90625  0
0.96875 0.90625  0
0.96875 0.96875  0
0.90625 0.96875  0
0.78125 0.90625  0
0.84375 0.90625  0
0.84375 0.96875  0
0.78125 0.96875  0
0.40625 0.90625  0
0.46875 0.90625  0
0.46875 0.96875  0
0.40625 0.96875  0
0.28125 0.90625  0
0.34375 0.90625  0
0.34375 0.96875  0
0.28125 0.96875  0
0.03125 0.78125  0
0.09375 0.78125  0
0.09375 0.84375  0
0.03125 0.84375  0
0.15625 0.90625  0
0.21875 0.90625  0
0.21875 0.96875  0
0.15625 0.96875  0
0.03125 0.90625  0
0.09375 0.90625  0
0.09375 0.96875  0
0.03125 0.96875  0
0.28125 0.03125  0
0.34375 0.03125  0
0.34375 0.09375  0
0.28125 0.09375  0
0.28125 0.15625  0
0.34375 0.15625  0
0.34375 0.21875  0
0.28125 0.21875  0
0.28125 0.28125  0
0.34375 0.28125  0
0.34375 0.34375  0
0.28125 0.34375  0
0.40625 0.28125  0
0.46875 0.28125  0
0.46875 0.34375  0
0.40625 0.34375  0
0.40625 0.40625  0
[...]
POINT_DATA 10207
SCALARS u000 DOUBLE 
LOOKUP_TABLE default
0
0
0
0
0.0625102
0
0
0
0
0.0351573
0.0351642
0.0351582
0.0351636
0
0
0
0
0
0.0468834
0.0468852
0
0
0.0468858
0
0.0468775
0.0119659
0.0256404
0.0549422
0.0256386
0.0256376
0.0119616
0.0256358
0.0549637
0.0549354
0.0256408
0.0119657
0.0256409
0.0256556
0.0549423
0.02564
0.0119651
0
0
0
0
0
0
0
0.0205124
0.0586049
0
0
0
0.0273506
0.0586032
0
0.0205074
0.0205317
0
0.0273502
0.0586051
0.0205136
0
0.0439541
0.0439734
0.0585976
0.0205132
0
0
0.0273666
0.0439536
0.0439483
0.0439538
0.0205133
0
0.0273455
0.0205114
0.0439549
0.0439553
0.0205084
0.0439478
0.00343446
0.0089276
0.0232142
0.00892915
0.012591
0.0327311
0.0374993
0.0144321
0.00892641
0.00343473
0.00892972
0.023214
0.0327382
0.0125875
0.0144233
0.0374988
0.0605716
0.0528754
0.0461683
0.0528826
0.0374991
0.0144236
0.0125922
0.0327318
0.0232096
0.00892949
0.00343452
0.00892919
0.0327362
0.0374926
0.0144228
0.0125923
0.00893618
0.0232093
0.00892929
0.00343413
0
0
0
0
0
0
0
0.0285701
0
0
0
0
0.0615273
0
0.010989
0
0
0
0.028565
0
0.0146531
0
0.00641103
0.00641056
0.0285873
0
0.0615273
0.010989
0.011005
0.0285715
0
0
0.0166663
0.00640935
0.05372
0.0064078
0.0146666
0.0109901
0.0285707
0.0137338
0.0380948
0
0.0402922
0.0166668
0.0402902
0.0137367
0.0402856
0.00641104
0
0.010988
0.0146514
0.0235033
0.02857
0
0.0166652
0.057682
0.00641115
0.0285693
0.0461535
0.0402911
0.0537216
0.0137361
0.0269217
0.0461524
0.0380951
0.0166654
0.0285654
0.0234991
0.0402923
0.0269227
0.0109896
0.046152
0.0269214
0
0.010996
0.0576821
0.00640949
0.0380923
0.0357112
0.0235042
0.0357064
0.0166659
0.0461537
0.0109897
0.00641083
0.0503573
0.0461503
0.0357118
0.016663
0.0503647
0.0137368
0.026918
0.0166655
0.0235034
0.0357076
0.016666
0.0125897
0.0144315
0.0374988
0.0327373
0.0461671
0.052882
0.0605745
0.0528822
0.014433
0.0126102
0.0327555
0.0374982
0.0528825
0.0461871
0.0528822
0.0605963
0.0374997
0.0327362
0.0125918
0.0144234
0.0144356
0.0375008
0.032738
0.012606
0.0528823
0.0605735
0.0528826
0.0461673
0.0266503
0.0345479
0.0385581
0.0297453
0.0318074
0.041232
0.0425672
0.0328378
0.00257286
0.000916085
0.00257279
0.00721746
0.0112
0.00399167
0.00517635
0.0145239
0.0345542
0.0266511
0.0297454
0.038554
0.0171746
0.00612125
0.0068325
0.0191662
0.0412295
0.0318056
0.0328375
0.0425669
0.0620169
0.060071
0.0581863
0.0600765
0.0561799
0.0503496
0.0487636
0.0544173
0.0425669
0.0328376
0.0318073
0.0412298
0.0385544
0.0297458
0.026655
0.034549
0.029208
0.0225361
0.0173813
0.0225311
0.0345528
0.0385591
0.0297423
0.0266519
0.0412251
0.0425606
0.0328362
0.031802
0.0225306
0.0292072
0.0225315
0.017381
0
0
0.061536
0.0146602
0
0
0.061536
0.0537225
0.0380936
0.0137468
0.040291
0.0403102
0.0235034
0
0
0.0137311
0.0576893
0.026923
0.0577113
0.0461519
0.0461515
0.0269216
0.0537217
0.0577114
0.0235258
0
0.0576902
0
0.0402925
0.0357136
0.0503643
0.0357129
0.050385
0.0576891
0.0461533
0.0503644
0.050364
0.0576901
0.0137368
0.0137488
0.0269381
0.0235046
0.0269239
0.0235181
0.0357151
0.035714
0.0503648
0.0503645
0
0
0.06226
0.0320443
0
0.0622601
0.0320506
0
0
0
0.0320452
0.0379108
0.050547
0.00567752
0.0379085
0.0379048
0
0.0427339
0.0320455
0.00929127
0.00929157
0.0603064
0.0320502
0.0247193
0.0199169
0
0.0033117
0.0467028
0.0320448
0.00331188
0.0246774
0.0379105
0.0467016
0.042735
0.0564074
0.0565376
0.0247254
0.0603066
0.00177458
0.0263836
0.00177433
0.0467018
0.0144187
0.00709613
0.0246742
0.0159354
0.0329663
0.026387
0.042727
0.0263885
0.0247255
0.00461406
0.0307966
0.030904
0.0221093
0.0565377
0.0583686
0.061287
0.0466997
0.0308999
0.0423055
0.0246792
0.0144226
0.0423059
0.0422999
0.0528749
0.00650524
0.0309062
0.027244
0.030802
0.0144199
0.0612927
0.00497923
0.0247253
0.00497926
0.0186973
0.00772394
0.0272433
0.0452356
0.0221103
0.0100169
0.0367176
0.0263837
0.0118468
0.0246787
0.0535047
0.0144221
0.0309011
0.0329682
0.024723
0.0452299
0.0367243
0.0144196
0.0379459
0.0283283
0.0132203
0.0583688
0.0379455
0.0272414
0.0308017
0.0260403
0.045236
0.0247202
0.022114
0.0186968
0.0423062
0.0367186
0.0400561
0.0400634
0.0379458
0.0329648
0.0593642
0.055519
0.0420667
0.0473814
0.0129469
0.0260365
0.0400567
0.0324516
0.0420664
0.0324509
0.028329
0.0186921
0.0497562
0.0182533
0.0420668
0.0343678
0.0367555
0.0272388
0.0452297
0.0186913
0.0324513
0.0260359
0.0221109
0.0593698
0.0343722
0.0400565
0.0186959
0.0308016
0.0367547
0.0367256
0.0260362
0.0283291
0.051826
0.0200849
0.0379437
0.0367556
0.0343682
0.0200849
0.0420597
0.0324456
0.0283261
0.0343686
0.036749
0.0200847
0.0200849
0.000915943
0.00257311
0.00722046
0.00257292
0.0039923
0.00517632
0.0145229
0.0112034
0.0173847
0.0225353
0.029211
0.0225356
0.00399235
0.0112042
0.0145239
0.00517511
0.0061212
0.0171767
0.0191683
0.00682905
0.0072976
0.0204955
0.0211586
0.00754697
0.0051706
0.00399116
0.0111988
0.0145197
0.0225342
0.0173827
0.0225363
0.0292137
0.0204977
0.00730558
0.00754228
0.0211635
0.0508989
0.0456046
0.0408721
0.0456117
0.0561852
0.0544227
0.0487702
0.0503489
0.0211624
0.00754135
0.00730453
0.0204984
0.0191709
0.00683157
0.00612269
0.0171788
0.0145241
0.00517587
0.00399239
0.0112048
0.0072212
0.00257311
0.000916942
0.00257328
0.0145193
0.0112038
0.00399297
0.00517488
0.0204972
0.0211613
0.00754033
0.00730371
0.017178
0.0191694
0.00683053
0.00612126
0.00518071
0.014522
0.0112032
0.00398845
0.011203
0.0145242
0.00517535
0.00399254
0.0025724
0.00722
0.00257313
0.000916784
0.00612033
0.00682494
0.0191698
0.0171767
0.0266553
0.0297461
0.0385535
0.0345544
0.0408729
0.0456087
0.0508988
0.0456104
0.04877
0.0503497
0.056187
0.0544243
0.0581938
0.0600787
0.0620245
0.0600784
0.0487698
0.0544244
0.0561872
0.05035
0.00682538
0.00613155
0.0171979
0.0191658
0.0328374
0.0318058
0.0412317
0.042566
0.0503501
0.0487695
0.0544243
0.0561882
0.0544238
0.04877
0.0503514
0.0561876
0.0600779
0.0582189
0.0600778
0.0620232
0.0425668
0.0412308
0.031808
0.0328314
0.0385593
0.034549
0.0266573
0.0297481
0.0211609
0.0204993
0.00730393
0.00754024
0.0328399
0.0425667
0.0412312
0.0318078
0.0297488
0.0385613
0.0345549
0.026657
0.00683832
0.019186
0.0171735
0.00611154
0.0600768
0.0620242
0.0600785
0.0581864
0.054424
0.0561879
0.0503494
0.0487681
0.045612
0.0508991
0.0456119
0.0408725
0.0235738
0.0277652
0.0297113
0.0252253
0.0315755
0.0350051
0.0374581
0.0337887
0.0356854
0.0395609
0.04132
0.0372664
0.0287716
0.0338817
0.0347216
0.029474
0.00701476
0.00518652
0.00701489
0.00948799
0.0117712
0.00870298
0.0102501
0.0138642
0.0313849
0.0266434
0.0278235
0.0327693
0.0214756
0.015877
0.0165806
0.0224273
0.0623818
0.0618944
0.06141
0.0618943
0.0594891
0.0580601
0.0566648
0.0580598
0.0609182
0.0604484
0.0589899
0.0594545
0.0575035
0.0550644
0.0546338
0.0570542
0.0509147
0.0475793
0.0464359
0.0496912
0.0561546
0.0537726
0.0524809
0.0548054
0.0413147
0.0372674
0.0356865
0.0395621
0.0297118
0.0252266
0.0235745
0.0277706
0.0374591
0.0337899
0.0315766
0.0350058
0.0322017
0.0290472
0.0262016
0.0290472
0.0255467
0.0216911
0.0195616
0.0230396
0.0202595
0.0172015
0.0146051
0.0172016
0.0350055
0.0374589
0.0337946
0.0315759
0.0277664
0.0297125
0.0252272
0.0235749
0.042716
0.0437684
0.0394806
0.038532
0.0444695
0.0448196
0.040429
0.040113
0.0352718
0.0355555
0.0301845
0.0299487
0.0338829
0.0347164
0.0294747
0.0287683
0.0216848
0.0255416
0.0230393
0.0195614
0.0230396
0.0255421
0.0216865
0.0195621
0.0172011
0.020259
0.0172015
0.0146046
0.0432862
0.0300965
0.0275201
0.0244308
0.0327277
0.0206526
0.0365164
0.0356802
0.0406825
0.0243251
0.0213401
0.0287742
0.0187652
0.0187653
0.0206539
0.0403109
0.0354523
0.0243256
0.0416842
0.0275208
0.0423518
0.0326707
0.0390459
0.0321555
0.0343344
0.0213398
0.0213404
0.018765
0.0187648
0
0
0
0
0.0320495
0
0
0
0
0
0
0
0
0.00757085
0.00567759
0
0.0320517
0
0
0.00567752
0.00569119
0
0.00757607
0
0.00929501
0
0.00929515
0
0
0
0
0.0247241
0
0.0144229
0
0.00756991
0
0.0159341
0
0
0.00331288
0
0.00331218
0.00567713
0.0199147
0.0144234
0
0.0379095
0
0
0
0.0212461
0.0186961
0.00177458
0.0247448
0.00177453
0.00929606
0.0159325
0
0
0.0144205
0.0505451
0.015952
0
0.00461083
0.00709554
0.0260412
0.00567765
0.00929604
0.0046134
0.0033123
0.0199178
0.00568912
0.0100164
0
0.00746662
0.0186967
0.00461121
0
0.0260397
0.00497987
0.00497972
0.00772619
0.00650672
0.0212673
0.00745387
0.0466998
0.00567793
0.00772697
0.00331281
0.0100164
0.0186941
0.00177472
0.0118472
0.00177463
0.012946
0.0200888
0.0145955
0.0159341
0
0.0260413
0.00709767
0.00929448
0.0100118
0.00745256
0.0260416
0.00772472
0.0528805
0.0145956
0
0.00461352
0.0132177
0.0145998
0.00929507
0.0564068
0.0212442
0.0200889
0.0129471
0.0141318
0.0199189
0.00177427
0.00650618
0.00331085
0.0182568
0.0423069
0.00177442
0.00461351
0.014137
0.0129443
0.0159349
0.0434377
0.0200883
0.00331256
0
0.0159324
0.0118484
0.00772749
0.00498015
0.00462277
0.0100172
0.0200874
0.0209123
0.0434396
0.00745148
0.020911
0.0535119
0.0452358
0.0145942
0.0159332
0.0141371
0.00498019
0.013221
0.00772717
0.00709679
0.0473881
0.00461339
0.0209132
0.0555242
0.0100151
0.0497581
0.0182579
0.0484738
0.00650552
0.0129475
0.0100248
0.0484759
0.0518335
0.00772465
0.0622676
0.00497911
0.0622686
0.011848
0.0129461
0.0100169
0.00772713
0.00497971
0.0141369
0
0.0209122
0.0132198
0
0.03791
0.0182591
0.0129468
0
0.050545
0.0427329
0.0129474
0.0199178
0.046702
0.0467018
0.0246783
0.0308022
0.0379114
0.0565447
0.0118467
0.0199132
0.0505474
0
0
0.0565718
0.0263863
0
0.0603141
0.0246756
0.0565447
0.00711192
0.0624436
0.0565717
0.0309055
0.0467011
0.0612948
0.056408
0.0528819
0.0624434
0.0336467
0.0309038
0.0221131
0.0329665
0.00709295
0.0528819
0.0528828
0.058376
0.0118642
0.060315
0.0583762
0.0528823
0.0336475
0.0365765
0.0565447
0.0422989
0.0199181
0.0272433
0.0365773
0.056543
0.0199367
0.0263851
0.0246797
0.0583772
0.0535126
0.043439
0.0336476
0.026389
0.0612945
0.0246963
0.0309072
0
0.0309068
0.0221355
0.0564076
0.0452361
0.0528821
0.0452357
0.0528818
0.058377
0.0336471
0.0365828
0.0400627
0.058377
0.0473877
0
0.0400635
0.047414
0.0106531
0.0145946
0.030802
0.0106533
0.0497581
0.058376
0.0228321
0.0423066
0.00709699
0.0367186
0.0473879
0.00710181
0.0497574
0.0473875
0.0308035
0.0272616
0.0452368
0.0379465
0.0221155
0.0535121
0.0557934
0.0272378
0.0221129
0.0132168
0.0448632
0.0400643
0.0379435
0.0260394
0.0473891
0.0400645
0.0251816
0.0434394
0.0118392
0.0226591
0.0473874
0.0420667
0.0283286
0.0468318
0.0557938
0.0575671
0.028325
0.0497571
0.0132182
0.0539623
0.0595129
0.0132183
0.0213351
0.0585403
0.022665
0.0260364
0.028326
0.0132175
0.0619549
0.0132178
0.0431754
0.0431698
0.0303504
0.031801
0.0619547
0.0609866
0.0266879
0.0585401
0.0446345
0.00422109
0.00422124
0.0303514
0.0226636
0.0347767
0.0083389
0.0609936
0.00650349
0.00787609
0.0213393
0.0196315
0.0078758
0.0612949
0.0132176
0.0391456
0.0612957
0.0535122
0.0182573
0.036724
0.0391409
0.00652187
0.0434398
0.0420651
0.0305803
0.0283294
0.0609779
0.0226602
0.0612958
0.0532426
0.0535121
0.0379446
0.0551255
0.0457219
0.0302144
0.055526
0.0168855
0.0614673
0.029718
0.0593719
0.0303518
0.0420595
0.0132154
0.0497573
0.0129164
0.0535118
0.0555264
0.0612945
0.0420654
0.0497575
0.0324503
0.0593715
0.0343726
0.00745165
0.0594001
0.0182783
0.0555262
0.0484755
0.0518328
0.0555265
0.0594
0.0318018
0.0273184
0.048475
0.0266935
0.0246603
0.0109755
0.0196253
0.0350344
0.0367546
0.0518334
0.0571669
0.0600252
0.0518333
0.0446341
0.0542571
0.0347777
0.0303509
0.0335863
0.0213363
0.0371617
0.030586
0.0614673
0.00651836
0.0367253
0.0518328
0.0391462
0.0420594
0.0196272
0.0154731
0.0434394
0.0420682
0.0513734
0.0246601
0.00570861
0.0228298
0.0141375
0.0593643
0.0283316
0.0324522
0.0413428
0.0155672
0.0324528
0.0209146
0.0367553
0.00570705
0.0593716
0.0132343
0.0343729
0.0413386
0.055526
0.00708036
0.0335915
0.0241133
0.0580826
0.0283318
0.0367549
0.0182749
0.0343752
0.0600322
0.026678
0.0536622
0.0484762
0.051834
0.0484755
0.0524031
0.0385534
0.0404687
0.0333379
0.030581
0.0246597
0.0571668
0.0318068
0.0333608
0.0216843
0.0347833
0.0335872
0.0216844
0.0297238
0.0273432
0.0377529
0.0246599
0.0362755
0.0333603
0.0134912
0.0398362
0.0155716
0.0305815
0.035029
0.0464717
0.0259689
0.037158
0.0266884
0.025717
0.0516734
0.0216841
0.0385544
0.0216842
0.0457332
0.00827513
0.0621987
0.00827526
0.0102667
0.0621991
0.0155682
0.0585831
0.0566606
0.0273383
0.0266886
0.0195601
0.0580825
0.0266769
0.0291559
0.0287729
0.0327216
0.0333388
0.0244291
0.0128415
0.0306683
0.0155712
0.0148438
0.0313864
0.0333616
0.0228345
0.0362763
0.0177039
0.0379444
0.0272631
0.0480151
0.0306682
0.0355912
0.015568
0.0259647
0.0404873
0.0574207
0.0273378
0.0563449
0.0209285
0.0219752
0.0297465
0.0602478
0.0555362
0.0489267
0.0333384
0.0303527
0.0362761
0.0350743
0.0379393
0.0297188
0.0362693
0.0356744
0.00611827
0.0376773
0.0273382
0.03856
0.00611833
0.0617126
0.0574204
0.0585834
0.00949412
0.0573351
0.0350742
0.0457332
0.0257218
0.0275193
0.0236628
0.0271051
0.0259699
0.0380559
0.0177037
0.0617127
0.0537012
0.0184111
0.0426851
0.0607468
0.0228318
0.0511442
0.0404822
0.0379393
0.0159328
0.0177082
0.0393514
0.0350749
0.0441629
0.0446886
0.0184112
0.0159329
0.054903
0.029742
0.016247
0.0259657
0.0184109
0.0362656
0.0321582
0.0470556
0.0184114
0.0120919
0.0592808
0.0365159
0.0343394
0.0291519
0.0290699
0.0588341
0.028779
0.0327228
0.0313838
0.0559047
0.027664
0.0244303
0.0243304
0.0236571
0.0159324
0.0376783
0.01873
0.0550231
0.0481217
0.0356755
0.0206582
0.0159325
0.0321153
0.0257182
0.0493067
0.0393474
0.0276642
0.0236581
0.0588345
0.0329332
0.0597835
0.0503538
0.0531805
0.00731033
0.00754511
0.021163
0.0204995
0.0318073
0.0328375
0.0425663
0.0412311
0.00754676
0.00729691
0.0204953
0.0211626
0.0297445
0.0266767
0.034556
0.038561
0.0456334
0.0408718
0.0456114
0.0508994
0.0191708
0.0171793
0.00612135
0.00683102
0.00754714
0.021179
0.0204906
0.00730843
0.0503499
0.0561872
0.0544245
0.0487706
0.026647
0.0313797
0.03277
0.027827
0.0385374
0.0427157
0.0437744
0.0394798
0.00149691
0.0011083
0.0032187
0.00435271
0.000686658
0.000236472
0.000686999
0.00199535
0.00321878
0.0011076
0.00149741
0.00435127
0.00539872
0.00185925
0.00218973
0.00635826
0.00723467
0.00249105
0.00275935
0.00801963
0.0277657
0.0235744
0.0252269
0.0297116
0.0395618
0.0356861
0.0372668
0.0413145
0.019002
0.0140489
0.0150334
0.020334
0.00871738
0.00300039
0.00320891
0.00932415
0.00984817
0.00339232
0.00353992
0.0102881
0.0427167
0.0385311
0.0394864
0.0437682
0.0338813
0.0287678
0.0294757
0.0347218
0.0444761
0.0401194
0.0404285
0.0448191
0.0609184
0.0594551
0.05899
0.0604422
0.052138
0.0487293
0.0483482
0.0517301
0.0437682
0.0394868
0.0385318
0.0427168
0.0327699
0.027828
0.0266479
0.0313804
0.0255417
0.0230397
0.0195617
0.0216859
0.0395681
0.0413143
0.0372676
0.0356865
0.0313808
0.0327708
0.0278246
0.0266443
0.0290464
0.0322012
0.0290467
0.0262011
0.000236428
0.000686622
0.00199523
0.000686611
0.00110826
0.00149896
0.00435392
0.00321892
0.00185958
0.00218812
0.00635851
0.00539887
0.00248822
0.00276115
0.00801948
0.0072304
0.0262007
0.0290513
0.0322008
0.0290465
0.0195659
0.0230438
0.0255411
0.0216854
0.00870622
0.0117753
0.0138645
0.0102539
0.0116564
0.0157715
0.0174796
0.0129268
0.00248997
0.00722978
0.0080192
0.00276064
0.014047
0.0190013
0.0203326
0.0150363
0.0158795
0.021479
0.0224297
0.0165821
0.0033874
0.00984683
0.0102828
0.00354106
0.0102483
0.00870217
0.0117707
0.0138626
0.0216901
0.0195591
0.0230429
0.0255466
0.0172032
0.0146032
0.0172006
0.020258
0.0230437
0.0195614
0.0216913
0.025547
0.0290544
0.0262007
0.0290524
0.0322076
0.0231891
0.0171479
0.0175696
0.0237599
0.0106375
0.00366005
0.00375368
0.0109004
0.0110686
0.00380818
0.00384317
0.0111618
0.02414
0.017851
0.0179871
0.0243352
0.0530067
0.0507581
0.0486115
0.0507649
0.0480602
0.0449122
0.0430072
0.0460212
0.0435811
0.0407208
0.0380537
0.0407267
0.0480669
0.0460208
0.0430132
0.044919
0.0575035
0.0570542
0.0546331
0.0550711
0.0561545
0.0548058
0.0524803
0.0537792
0.0521437
0.0517362
0.0483414
0.0487224
0.0111622
0.00384269
0.00381208
0.0110694
0.0224262
0.0165847
0.0158819
0.0214805
0.0102881
0.00353855
0.00339229
0.00985233
0.0093288
0.00321205
0.00299766
0.00871375
0.0203378
0.0150327
0.0140524
0.0190061
0.0174841
0.0129224
0.0116613
0.0157673
0.00801611
0.00276081
0.00249054
0.00723445
0.0138685
0.0102506
0.00870663
0.0117721
0.00949196
0.00701527
0.00518899
0.00701526
0.00435361
0.00149893
0.0011069
0.00321888
0.00435364
0.00321905
0.00110838
0.00149725
0.0174796
0.0157677
0.0116572
0.0129231
0.0138654
0.0117724
0.0087062
0.0102539
0.00636098
0.0053983
0.00185968
0.00218765
0.0231883
0.0237591
0.0175639
0.0171482
0.0241405
0.0243307
0.0179913
0.0178509
0.0190025
0.0203342
0.0150379
0.0140478
0.0214801
0.0224316
0.016581
0.0158777
0.012927
0.0174785
0.015767
0.0116615
0.0102536
0.013868
0.0117712
0.00870157
0.0117718
0.0138649
0.010254
0.00870281
0.0157715
0.0174802
0.0129269
0.0116571
0.00723387
0.00801544
0.00276042
0.00249037
0.00540063
0.00636109
0.0021901
0.00185738
0.0032188
0.00435105
0.00149885
0.00110815
0.000687383
0.00199667
0.000687421
0.000236174
0.0158746
0.016585
0.0224315
0.0214793
0.0140469
0.0150361
0.020333
0.0190011
0.0356857
0.0372666
0.0413138
0.0395612
0.031581
0.0337948
0.0374645
0.0350047
0.0380527
0.0407265
0.0435739
0.0407259
0.0430062
0.0449115
0.0480591
0.0460271
0.0483482
0.0487221
0.0521366
0.0517366
0.0524876
0.0537796
0.0561618
0.0548125
0.061418
0.061902
0.0623896
0.0619024
0.0589898
0.0604418
0.0609263
0.0594627
0.0464354
0.0496902
0.050921
0.0475859
0.0301832
0.0299532
0.0352778
0.0355557
0.0394864
0.038531
0.0427249
0.0437743
0.0487219
0.048348
0.0517366
0.0521438
0.0475852
0.0464428
0.0496983
0.0509129
0.0550638
0.0546412
0.057064
0.0575111
0.0517369
0.0483412
0.0487293
0.0521375
0.0570642
0.0546414
0.0550716
0.057511
0.0604507
0.0589985
0.0594546
0.0609182
0.0618941
0.0614203
0.0618943
0.0623824
0.0448192
0.0444758
0.040119
0.0404285
0.0437684
0.0427169
0.0385385
0.0394869
0.034723
0.0338888
0.0287737
0.0294823
0.0355498
0.0352722
0.0299476
0.0301843
0.0413211
0.0395619
0.0356871
0.0372676
0.0374592
0.0350059
0.0315768
0.03379
0.0297118
0.0277712
0.0235799
0.0252323
0.03277
0.0313855
0.0266429
0.0278291
0.0243305
0.024139
0.0178454
0.0179915
0.023765
0.0231932
0.017143
0.017571
0.0301942
0.0355581
0.0352801
0.0299577
0.0404361
0.0448203
0.0444699
0.0401202
0.0394816
0.0437753
0.0427235
0.038533
0.0337955
0.0374588
0.0350112
0.0315814
0.0252332
0.0297181
0.0277656
0.0235781
0.0594624
0.0609183
0.0604423
0.0589899
0.0619019
0.062382
0.0618942
0.0614176
0.0604495
0.0609184
0.0594549
0.0589975
0.0580602
0.0594893
0.0580599
0.0566655
0.0548053
0.0561615
0.0537795
0.0524802
0.0570614
0.0575034
0.0550713
0.0546411
0.0517365
0.0521364
0.048722
0.0483475
0.0496972
0.0509134
0.047579
0.046436
0.0449191
0.0480597
0.0460282
0.0430139
0.0460282
0.0480667
0.0449119
0.0430137
0.0220374
0.0241852
0.0251123
0.0228795
0.0262422
0.0282032
0.0292843
0.0272468
0.0335307
0.0351176
0.036464
0.0348127
0.0342164
0.0362361
0.0371323
0.0350606
0.00513431
0.0042727
0.00513441
0.00616908
0.00716627
0.00596421
0.00676125
0.00812505
0.0119141
0.0105083
0.0115322
0.0130751
0.00904546
0.00752721
0.00826205
0.00992841
0.0275212
0.0250754
0.0256941
0.0282002
0.033603
0.0312653
0.0318664
0.0342506
0.0171003
0.0142294
0.0145823
0.0175225
0.0624744
0.0623497
0.0622278
0.0623496
0.0621054
0.0617412
0.0616206
0.061986
0.0617433
0.0613793
0.0610177
0.0613796
0.0574507
0.0566315
0.0558238
0.0566332
0.0587406
0.058153
0.0573237
0.0579005
0.0599084
0.0597939
0.0589388
0.0590541
0.055434
0.0540995
0.0537786
0.0551053
0.0577393
0.0566453
0.0563134
0.0573969
0.0519195
0.0503644
0.04986
0.051402
0.0476209
0.0458636
0.0452097
0.0469401
0.0507813
0.0492597
0.0485553
0.050057
0.0534732
0.0521857
0.0514396
0.0527105
0.0426466
0.0407177
0.0399493
0.0418417
0.0409455
0.0390935
0.0381506
0.0399579
0.0267796
0.0244005
0.0236695
0.0259777
0.0352633
0.0332961
0.0323005
0.0342053
0.033069
0.0312261
0.030075
0.0318498
0.0364643
0.0348136
0.0335316
0.03512
0.0277047
0.0261608
0.0247008
0.026159
0.0305481
0.0291663
0.0275418
0.028847
0.0210398
0.0191702
0.0181018
0.0198667
0.0159784
0.014559
0.0132655
0.0145588
0.0186324