# vtk DataFile Version 4.2 
output from GascoigneStd, 
ASCII
DATASET UNSTRUCTURED_GRID
POINTS 10207 DOUBLE 
0 0  0
1 0  0
1 1  0
0 1  0
0.5 0.5  0
0.5 0  0
1 0.5  0
0 0.5  0
0.5 1  0
0.25 0.25  0
0.75 0.25  0
0.75 0.75  0
0.25 0.75  0
0.25 0  0
0.75 0  0
0 0.25  0
1 0.25  0
1 0.75  0
0.5 0.25  0
0.75 0.5  0
0.75 1  0
0 0.75  0
0.25 0.5  0
0.25 1  0
0.5 0.75  0
0.125 0.125  0
0.375 0.125  0
0.375 0.375  0
0.125 0.375  0
0.625 0.125  0
0.875 0.125  0
0.875 0.375  0
0.625 0.375  0
0.625 0.625  0
0.875 0.625  0
0.875 0.875  0
0.625 0.875  0
0.125 0.625  0
0.375 0.625  0
0.375 0.875  0
0.125 0.875  0
0.125 0  0
0 0.125  0
0.875 0  0
1 0.125  0
0.375 0  0
0.625 0  0
1 0.875  0
0.25 0.125  0
0.5 0.375  0
0 0.375  0
1 0.375  0
0.875 1  0
0.5 0.125  0
0.625 0.5  0
1 0.625  0
0.125 0.25  0
0.75 0.125  0
0 0.875  0
0.875 0.5  0
0.375 0.5  0
0.875 0.25  0
0.125 1  0
0.375 0.25  0
0.625 0.25  0
0.5 0.625  0
0.875 0.75  0
0.625 1  0
0 0.625  0
0.125 0.5  0
0.75 0.375  0
0.75 0.625  0
0.25 0.375  0
0.75 0.875  0
0.375 1  0
0.5 0.875  0
0.125 0.75  0
0.25 0.625  0
0.625 0.75  0
0.25 0.875  0
0.375 0.75  0
0.0625 0.0625  0
0.1875 0.0625  0
0.1875 0.1875  0
0.0625 0.1875  0
0.0625 0.3125  0
0.1875 0.3125  0
0.1875 0.4375  0
0.0625 0.4375  0
0.8125 0.0625  0
0.9375 0.0625  0
0.9375 0.1875  0
0.8125 0.1875  0
0.8125 0.3125  0
0.9375 0.3125  0
0.9375 0.4375  0
0.8125 0.4375  0
0.5625 0.5625  0
0.6875 0.5625  0
0.6875 0.6875  0
0.5625 0.6875  0
0.8125 0.5625  0
0.9375 0.5625  0
0.9375 0.6875  0
0.8125 0.6875  0
0.8125 0.8125  0
0.9375 0.8125  0
0.9375 0.9375  0
0.8125 0.9375  0
0.3125 0.8125  0
0.4375 0.8125  0
0.4375 0.9375  0
0.3125 0.9375  0
0.0625 0.8125  0
0.1875 0.8125  0
0.1875 0.9375  0
0.0625 0.9375  0
0.0625 0  0
0 0.0625  0
0.9375 0  0
1 0.0625  0
1 0.9375  0
0.1875 0  0
0.9375 1  0
0.25 0.1875  0
0 0.1875  0
0 0.4375  0
0.8125 0  0
1 0.4375  0
0.5625 0.5  0
1 0.1875  0
0.25 0.0625  0
1 0.5625  0
0 0.9375  0
1 0.8125  0
0.1875 0.25  0
0 0.3125  0
0.9375 0.5  0
0.0625 1  0
0.125 0.0625  0
0.0625 0.125  0
0.75 0.1875  0
1 0.3125  0
0.5 0.5625  0
0.0625 0.25  0
0.75 0.0625  0
0.8125 0.25  0
1 0.6875  0
0.8125 1  0
0.1875 0.125  0
0.875 0.0625  0
0.6875 0.5  0
0.9375 0.125  0
0.0625 0.5  0
0.9375 0.25  0
0.8125 0.75  0
0.0625 0.375  0
0.8125 0.5  0
0 0.8125  0
0.75 0.3125  0
0.125 0.1875  0
0.25 0.3125  0
0.9375 0.375  0
0.75 0.6875  0
0.9375 0.875  0
0.4375 1  0
0.9375 0.75  0
0.5 0.9375  0
0.125 0.3125  0
0.75 0.8125  0
0.1875 1  0
0.8125 0.125  0
0.625 0.5625  0
0.875 0.9375  0
0.1875 0.75  0
0.75 0.4375  0
0.6875 0.75  0
0.5 0.6875  0
0.9375 0.625  0
0.875 0.4375  0
0.75 0.5625  0
0.1875 0.5  0
0.875 0.1875  0
0.25 0.8125  0
0.875 0.3125  0
0.3125 0.75  0
0.875 0.5625  0
0.75 0.9375  0
0.25 0.4375  0
0.125 0.4375  0
0.3125 1  0
0.0625 0.75  0
0.5625 0.625  0
0.0625 0.875  0
0.5 0.8125  0
0.1875 0.375  0
0.875 0.6875  0
0.8125 0.375  0
0.875 0.8125  0
0.5625 0.75  0
0.25 0.9375  0
0.125 0.9375  0
0.6875 0.625  0
0.4375 0.75  0
0.8125 0.625  0
0.8125 0.875  0
0.625 0.6875  0
0.375 0.9375  0
0.4375 0.875  0
0.125 0.8125  0
0.3125 0.875  0
0.375 0.8125  0
0.1875 0.875  0
0.3125 0.0625  0
0.4375 0.0625  0
0.4375 0.1875  0
0.3125 0.1875  0
0.3125 0.3125  0
0.4375 0.3125  0
0.4375 0.4375  0
0.3125 0.4375  0
0.5625 0.0625  0
0.6875 0.0625  0
0.6875 0.1875  0
0.5625 0.1875  0
0.5625 0.3125  0
0.6875 0.3125  0
0.6875 0.4375  0
0.5625 0.4375  0
0.5625 0.8125  0
0.6875 0.8125  0
0.6875 0.9375  0
0.5625 0.9375  0
0.0625 0.5625  0
0.1875 0.5625  0
0.1875 0.6875  0
0.0625 0.6875  0
0.3125 0.5625  0
0.4375 0.5625  0
0.4375 0.6875  0
0.3125 0.6875  0
0.15625 0.28125  0
0.21875 0.28125  0
0.21875 0.34375  0
0.15625 0.34375  0
0.15625 0.40625  0
0.21875 0.40625  0
0.21875 0.46875  0
0.15625 0.46875  0
0.90625 0.03125  0
0.96875 0.03125  0
0.96875 0.09375  0
0.90625 0.09375  0
0.90625 0.15625  0
0.96875 0.15625  0
0.96875 0.21875  0
0.90625 0.21875  0
0.78125 0.28125  0
0.84375 0.28125  0
0.84375 0.34375  0
0.78125 0.34375  0
0.90625 0.28125  0
0.96875 0.28125  0
0.96875 0.34375  0
0.90625 0.34375  0
0.78125 0.40625  0
0.84375 0.40625  0
0.84375 0.46875  0
0.78125 0.46875  0
0.53125 0.53125  0
0.59375 0.53125  0
0.59375 0.59375  0
0.53125 0.59375  0
0.65625 0.53125  0
0.71875 0.53125  0
0.71875 0.59375  0
0.65625 0.59375  0
0.78125 0.53125  0
0.84375 0.53125  0
0.84375 0.59375  0
0.78125 0.59375  0
0.78125 0.65625  0
0.84375 0.65625  0
0.84375 0.71875  0
0.78125 0.71875  0
0.78125 0.78125  0
0.84375 0.78125  0
0.84375 0.84375  0
0.78125 0.84375  0
0.28125 0.78125  0
0.34375 0.78125  0
0.34375 0.84375  0
0.28125 0.84375  0
0.40625 0.78125  0
0.46875 0.78125  0
0.46875 0.84375  0
0.40625 0.84375  0
0.15625 0.78125  0
0.21875 0.78125  0
0.21875 0.84375  0
0.15625 0.84375  0
0.4375 0  0
0.5625 0  0
0.5 0.4375  0
0.5 0.0625  0
0.3125 0  0
0.6875 0  0
0.4375 0.5  0
0.5 0.3125  0
0.5 0.1875  0
0.375 0.0625  0
0.3125 0.25  0
0.6875 0.25  0
0.3125 0.125  0
0 0.5625  0
0.5625 1  0
0.625 0.0625  0
0.4375 0.375  0
0.4375 0.125  0
0.5625 0.375  0
0.4375 0.25  0
0.5625 0.25  0
0.5625 0.125  0
0.3125 0.5  0
0.625 0.4375  0
0.6875 0.125  0
0.6875 1  0
0.375 0.4375  0
0 0.6875  0
0.25 0.6875  0
0.375 0.1875  0
0.375 0.3125  0
0.625 0.1875  0
0.625 0.3125  0
0.375 0.5625  0
0.25 0.5625  0
0.3125 0.375  0
0.6875 0.375  0
0.4375 0.625  0
0.625 0.9375  0
0.0625 0.625  0
0.125 0.5625  0
0.6875 0.875  0
0.5625 0.875  0
0.125 0.6875  0
0.1875 0.625  0
0.625 0.8125  0
0.3125 0.625  0
0.375 0.6875  0
0.96875 0  0
1 0.03125  0
0.53125 0.5  0
0.21875 0.25  0
1 0.21875  0
0.5 0.53125  0
0.78125 0.25  0
1 0.28125  0
0.90625 0  0
1 0.09375  0
0.78125 0.75  0
0.75 0.28125  0
0.71875 0.5  0
0.96875 0.25  0
0.25 0.28125  0
0.75 0.71875  0
1 0.15625  0
0.78125 0.5  0
0.75 0.78125  0
0.875 0.09375  0
0.90625 0.125  0
0.59375 0.5  0
0.21875 0.75  0
0.15625 0.25  0
0.90625 0.375  0
1 0.34375  0
0.875 0.03125  0
0.75 0.46875  0
0.25 0.78125  0
0.96875 0.125  0
0.125 0.34375  0
0.28125 0.75  0
0.75 0.53125  0
0.21875 0.5  0
0.65625 0.5  0
0.625 0.59375  0
0.84375 0.25  0
0.5 0.59375  0
0.9375 0.03125  0
0.875 0.40625  0
0.96875 0.0625  0
0.25 0.46875  0
0.875 0.15625  0
0.96875 0.375  0
0.875 0.34375  0
0.90625 0.25  0
0.84375 0.5  0
0.125 0.40625  0
0.5 0.78125  0
0.875 0.59375  0
0.84375 0.75  0
0.96875 0.1875  0
0.1875 0.28125  0
0.15625 0.375  0
0.125 0.28125  0
0.59375 0.625  0
0.625 0.53125  0
0.5625 0.53125  0
0.46875 0.75  0
0.84375 0.375  0
0.75 0.34375  0
0.875 0.65625  0
0.875 0.84375  0
0.25 0.34375  0
0.75 0.65625  0
0.65625 0.625  0
0.96875 0.3125  0
0.84375 0.625  0
0.875 0.46875  0
0.8125 0.28125  0
0.84375 0.875  0
0.53125 0.5625  0
0.90625 0.0625  0
0.75 0.84375  0
0.9375 0.09375  0
0.875 0.21875  0
0.9375 0.15625  0
0.875 0.53125  0
0.75 0.40625  0
0.875 0.28125  0
0.9375 0.21875  0
0.21875 0.3125  0
0.40625 0.875  0
0.9375 0.28125  0
0.34375 0.875  0
0.6875 0.53125  0
0.125 0.84375  0
0.375 0.84375  0
0.15625 0.5  0
0.15625 0.75  0
0.75 0.59375  0
0.78125 0.3125  0
0.15625 0.875  0
0.8125 0.46875  0
0.15625 0.3125  0
0.9375 0.34375  0
0.53125 0.625  0
0.8125 0.53125  0
0.125 0.46875  0
0.8125 0.71875  0
0.8125 0.78125  0
0.25 0.40625  0
0.25 0.84375  0
0.875 0.71875  0
0.875 0.78125  0
0.34375 0.75  0
0.78125 0.6875  0
0.78125 0.375  0
0.21875 0.375  0
0.1875 0.46875  0
0.5 0.84375  0
0.59375 0.5625  0
0.65625 0.5625  0
0.78125 0.4375  0
0.71875 0.625  0
0.90625 0.1875  0
0.78125 0.8125  0
0.78125 0.625  0
0.84375 0.4375  0
0.21875 0.4375  0
0.15625 0.4375  0
0.84375 0.3125  0
0.78125 0.875  0
0.71875 0.5625  0
0.90625 0.3125  0
0.78125 0.5625  0
0.1875 0.34375  0
0.1875 0.40625  0
0.46875 0.875  0
0.40625 0.75  0
0.125 0.78125  0
0.84375 0.5625  0
0.1875 0.78125  0
0.28125 0.875  0
0.5625 0.59375  0
0.8125 0.34375  0
0.375 0.78125  0
0.21875 0.875  0
0.28125 0.8125  0
0.8125 0.40625  0
0.3125 0.78125  0
0.21875 0.8125  0
0.84375 0.6875  0
0.6875 0.59375  0
0.84375 0.8125  0
0.46875 0.8125  0
0.8125 0.59375  0
0.8125 0.65625  0
0.8125 0.84375  0
0.4375 0.78125  0
0.4375 0.84375  0
0.3125 0.84375  0
0.34375 0.8125  0
0.40625 0.8125  0
0.15625 0.8125  0
0.1875 0.84375  0
0.03125 0.03125  0
0.09375 0.03125  0
0.09375 0.09375  0
0.03125 0.09375  0
0.15625 0.03125  0
0.21875 0.03125  0
0.21875 0.09375  0
0.15625 0.09375  0
0.15625 0.15625  0
0.21875 0.15625  0
0.21875 0.21875  0
0.15625 0.21875  0
0.03125 0.15625  0
0.09375 0.15625  0
0.09375 0.21875  0
0.03125 0.21875  0
0.03125 0.28125  0
0.09375 0.28125  0
0.09375 0.34375  0
0.03125 0.34375  0
0.03125 0.40625  0
0.09375 0.40625  0
0.09375 0.46875  0
0.03125 0.46875  0
0.78125 0.03125  0
0.84375 0.03125  0
0.84375 0.09375  0
0.78125 0.09375  0
0.78125 0.15625  0
0.84375 0.15625  0
0.84375 0.21875  0
0.78125 0.21875  0
0.90625 0.40625  0
0.96875 0.40625  0
0.96875 0.46875  0
0.90625 0.46875  0
0.65625 0.65625  0
0.71875 0.65625  0
0.71875 0.71875  0
0.65625 0.71875  0
0.53125 0.65625  0
0.59375 0.65625  0
0.59375 0.71875  0
0.53125 0.71875  0
0.90625 0.53125  0
0.96875 0.53125  0
0.96875 0.59375  0
0.90625 0.59375  0
0.90625 0.65625  0
0.96875 0.65625  0
0.96875 0.71875  0
0.90625 0.71875  0
0.90625 0.78125  0
0.96875 0.78125  0
0.96875 0.84375  0
0.90625 0.84375  0
0.90625 0.90625  0
0.96875 0.90625  0
0.96875 0.96875  0
0.90625 0.96875  0
0.78125 0.90625  0
0.84375 0.90625  0
0.84375 0.96875  0
0.78125 0.96875  0
0.40625 0.90625  0
0.46875 0.90625  0
0.46875 0.96875  0
0.40625 0.96875  0
0.28125 0.90625  0
0.34375 0.90625  0
0.34375 0.96875  0
0.28125 0.96875  0
0.03125 0.78125  0
0.09375 0.78125  0
0.09375 0.84375  0
0.03125 0.84375  0
0.15625 0.90625  0
0.21875 0.90625  0
0.21875 0.96875  0
0.15625 0.96875  0
0.03125 0.90625  0
0.09375 0.90625  0
0.09375 0.96875  0
0.03125 0.96875  0
0.28125 0.03125  0
0.34375 0.03125  0
0.34375 0.09375  0
0.28125 0.09375  0
0.28125 0.15625  0
0.34375 0.15625  0
0.34375 0.21875  0
0.28125 0.21875  0
0.28125 0.28125  0
0.34375 0.28125  0
0.34375 0.34375  0
0.28125 0.34375  0
0.40625 0.28125  0
0.46875 0.28125  0
0.46875 0.34375  0
0.40625 0.34375  0
0.40625 0.40625  0
[...]
CELL_DATA 9244
SCALARS U000 DOUBLE 
LOOKUP_TABLE default
14.8932
14.9059
14.8946
14.8599
14.8707
14.8836
14.8729
14.793
14.8026
14.8159
14.8064
14.8126
14.823
14.8362
14.8259
14.8391
14.8493
14.8624
14.8523
14.8198
14.8293
14.7947
14.8051
14.8171
14.8295
14.8177
14.8304
14.8421
14.8549
14.8432
14.8076
14.8188
14.8318
14.8206
14.8337
14.8447
14.8577
14.8468
14.8561
14.8676
14.8804
14.869
14.8818
14.7241
14.7285
14.7424
14.7381
14.752
14.7563
14.7702
14.766
14.7452
14.7483
14.7623
14.7592
14.7109
14.7115
14.7256
14.725
14.7127
14.7146
14.7287
14.7268
14.7409
14.7428
14.8425
14.8332
14.6556
14.6562
14.6698
14.6692
14.6574
14.6594
14.6729
14.671
14.6848
14.6867
14.7006
14.6987
14.683
14.6835
14.6975
14.6969
14.7172
14.7203
14.7343
14.7312
14.4985
14.4923
14.5047
14.5122
14.5128
14.5053
14.5067
14.5141
14.5162
14.5087
14.4936
14.4998
14.5018
14.4956
14.8292
14.8416
14.8539
14.8416
14.8541
14.8667
14.8788
14.4879
14.4914
14.4962
14.4928
14.4734
14.4741
14.4775
14.4769
14.4754
14.4775
14.481
14.4789
14.4831
14.4852
14.49
14.4879
14.4811
14.4817
14.4866
14.4859
14.4916
14.4979
14.9158
14.9279
14.9156
14.9278
14.9399
14.952
14.94
14.9521
14.9641
14.9759
14.964
14.9759
14.9876
14.9993
14.9877
14.9521
14.964
14.976
14.9642
14.782
14.7934
14.806
14.8663
14.8786
14.891
14.9033
14.891
14.8541
14.8663
14.8788
14.8668
14.8794
14.892
14.9039
14.8913
14.9046
14.9172
14.9288
14.9164
14.9282
14.9405
14.9523
14.9401
14.9034
14.935
14.9414
14.9123
14.9182
14.9475
14.9917
14.9678
14.9742
14.9983
15.0481
15.0338
15.0414
15.0558
15.0174
14.9988
15.006
15.0248
15.032
15.013
15.0198
15.039
14.9262
14.9334
14.9565
14.9007
14.8726
14.8796
14.9078
14.9148
14.8863
14.893
14.9217
14.9638
14.9406
14.9476
14.971
14.978
14.9545
14.9613
14.9849
14.9284
14.8996
14.906
15.0991
15.095
15.0927
15.0949
15.1042
15.1022
15.1116
15.1134
15.1223
15.1207
15.1046
15.1086
15.118
15.1141
14.8915
14.8561
14.8613
14.897
14.8176
14.776
14.7807
14.8226
15.0633
15.0488
15.0559
15.0707
15.0854
15.0788
15.087
15.0938
15.0704
15.0602
15.0681
15.0785
15.0864
15.0759
15.0834
15.0941
15.1021
15.0951
15.103
15.1101
15.0851
15.0895
14.9106
14.9204
14.9272
14.9175
14.9294
14.9377
14.9444
14.9362
14.9433
14.9514
14.9589
14.9509
14.9248
14.9344
14.9421
14.9325
14.8416
14.8539
14.859
14.8467
14.8657
14.7568
14.7549
14.7391
14.7397
14.7537
14.7531
14.9451
14.9516
14.958
14.9517
14.9569
14.9613
14.9676
14.9634
14.9701
14.9743
14.9813
14.9772
14.9586
14.9649
14.9721
14.966
14.8634
14.829
14.8422
14.8505
14.8374
15.018
15.0126
15.0206
15.0262
15.0055
14.9966
15.0044
15.0134
15.0214
15.0122
15.0201
15.0294
15.0344
15.0288
15.037
15.0427
14.9491
14.8771
14.8821
14.8708
14.8764
14.8876
14.8936
14.8824
14.8524
14.8646
14.8707
14.8586
14.8135
14.8269
14.8343
14.821
14.84
14.8528
14.8601
14.8473
14.8551
14.8679
14.876
14.3904
14.3945
14.3207
13.9848
14.0768
14.0796
13.9877
14.164
14.2466
14.2492
14.1667
14.1686
14.2511
14.2518
14.1696
13.9899
14.0816
14.0827
13.991
5.79177
5.64259
14.1502
14.1558
14.2384
14.243
14.1604
13.9762
14.0684
14.0731
13.981
14.305
14.379
14.3853
14.3113
14.4489
14.5147
14.5209
14.4551
14.4601
14.5258
14.5295
14.464
14.3166
6.40104
6.20515
6.33156
6.53245
6.77031
6.58933
6.72555
6.91118
6.23835
6.01603
6.1228
6.35007
5.78494
5.54476
5.64187
5.8868
5.98435
5.73441
5.82312
6.0777
6.4569
6.22507
5.81688
5.97201
5.48673
5.32415
5.48685
5.65524
5.81701
5.64273
5.79229
5.97224
6.14493
5.98432
6.14505
6.31098
6.47043
6.29931
6.44733
6.62343
6.12116
5.93577
6.07327
6.26402
12.1047
11.9296
11.9489
12.1244
12.1423
11.9667
11.5767
11.7664
11.7838
11.5936
13.2451
13.3566
13.3888
13.2772
13.4628
13.5639
13.5968
13.4953
13.5255
13.6272
13.6553
12.1464
12.3055
12.335
12.1756
12.4581
12.6041
12.6346
12.4879
12.5156
12.6627
12.6886
12.5414
12.2026
12.3623
12.3876
12.2274
11.5374
11.7266
11.7474
11.558
11.9085
12.0831
14.4528
14.4778
14.4189
14.5082
14.5601
14.5851
14.5331
14.556
14.6079
14.6286
14.5768
14.4418
14.5006
14.5215
14.4626
13.9636
14.056
14.0627
13.9706
14.1436
14.2265
14.233
13.5536
13.307
13.4188
13.4466
13.3344
14.4864
14.532
14.5662
14.5208
14.5746
14.6141
14.6484
14.6087
14.6404
14.68
14.7091
14.6697
14.5525
14.598
14.6272
14.5817
14.3939
9.04067
9.60535
9.32587
9.33009
9.60965
8.41791
8.09796
8.10247
8.42267
7.76715
7.42563
7.43018
7.77166
7.77539
7.43373
7.43629
7.77837
8.42684
8.10636
8.10963
8.43007
13.0623
13.0616
13.197
13.1954
13.0601
13.058
13.1934
13.4484
13.3248
13.3226
13.4459
9.59473
9.31554
9.32104
9.60064
9.02654
8.7274
8.73238
9.03176
9.03647
8.73682
8.74118
14.4867
14.4818
14.4832
14.488
14.4901
14.4852
14.4755
14.479
14.481
14.4775
14.4803
14.4838
14.4872
14.4838
14.488
14.4929
14.4963
14.4914
14.4956
14.5004
14.5053
14.5004
9.61336
9.33375
9.33684
9.61647
9.04432
8.74499
8.7479
9.04739
9.04979
8.75051
8.75201
9.05156
9.61925
9.3393
9.34116
9.62091
14.4735
14.477
14.4776
14.4741
14.4812
14.4861
8.36146
8.15679
8.25215
8.45965
8.55349
8.3431
8.42969
8.64315
8.95124
8.75617
8.84863
9.04634
9.43497
9.27351
9.38553
9.5498
9.10516
8.93005
9.03675
9.21461
9.31935
6.32298
6.55925
7.04636
6.85618
6.98143
7.17596
6.65841
6.45297
6.56877
6.77916
6.89487
6.68009
6.78677
7.0058
7.30028
7.10151
7.2166
7.41942
8.74783
8.55839
8.65948
8.85178
7.84799
6.65725
6.4167
6.5064
6.75107
6.16705
5.90801
5.98918
6.25255
6.33427
6.067
6.14081
6.41236
6.84085
6.5922
6.67428
6.92673
13.4512
13.3275
13.3265
13.4502
13.1979
9.13889
9.23661
9.41954
9.65957
9.49281
9.59548
9.76433
7.53363
7.32689
7.43256
7.64302
7.11209
6.88896
6.98681
7.21388
7.31133
7.08047
7.17011
7.40456
7.74797
7.5337
7.63053
13.4427
13.3195
13.3221
13.4397
13.4361
13.3132
13.3165
13.1876
13.1844
13.0495
13.0527
13.1929
13.1905
13.0555
13.0577
12.892
12.889
12.7415
12.7446
12.8855
12.8822
11.6758
11.8669
11.866
11.6769
11.6776
13.866
13.8621
13.7619
13.7658
13.8579
13.8533
13.7535
13.7578
13.6526
13.6483
13.5378
13.542
13.6603
13.6566
13.5459
13.5494
13.4453
12.5781
12.575
12.4144
12.4174
12.2496
12.2468
12.0718
12.0746
12.2439
12.2411
12.0664
12.0691
11.8867
11.884
11.6941
11.6969
11.892
11.8894
11.6993
11.7018
12.261
12.2582
12.735
12.7383
12.5843
12.5812
12.4204
12.4234
12.5904
12.5874
12.4264
12.4293
12.8788
12.8754
12.7286
12.7318
12.8723
12.8688
12.7221
12.7254
12.5719
12.5688
12.4086
12.4115
14.4603
14.4636
14.5232
14.5196
14.4669
14.4703
14.4011
14.3989
14.3384
14.3405
14.3968
14.3951
14.3348
14.3365
14.272
14.2703
14.2017
14.2032
14.2758
14.2738
14.2051
14.4606
14.4551
14.3931
14.3985
14.3324
14.3271
14.2569
14.2621
14.3426
14.3375
14.2671
14.272
14.618
14.6143
14.5687
14.5724
14.6107
14.6072
14.5618
14.5651
14.5161
14.5128
12.217
12.043
12.0436
11.862
11.8614
11.6723
11.6731
11.8634
11.8627
11.6735
11.6741
12.2229
12.222
12.0476
12.0486
12.2208
12.2199
12.0457
12.0467
11.865
11.8641
11.6749
14.207
14.3936
14.3925
14.3322
14.3333
14.3917
14.391
14.3307
14.3313
14.2669
14.2662
14.1976
14.1984
14.2689
14.2678
14.1992
14.2003
12.2191
12.2183
12.0442
12.0449
12.2178
11.991
11.8884
11.9854
11.8764
11.7804
12.078
12.1663
12.0553
11.968
11.8528
11.939
11.8174
11.7324
11.6676
11.7624
11.6432
11.5498
11.4514
11.5682
11.4641
11.349
12.6905
12.559
12.5145
12.5461
12.5971
12.467
12.4165
12.2723
12.3737
12.2834
12.1832
12.4704
12.5623
12.4704
12.3791
12.2834
12.3737
12.2725
12.1831
12.0893
12.1887
12.0894
11.2746
11.1948
11.1629
11.2524
11.1108
11.0225
10.487
10.5911
10.4436
10.3416
10.6906
10.7853
10.6344
10.5412
10.3856
10.477
10.313
10.2237
10.1898
10.29
10.13
10.0317
11.6797
11.7863
11.6798
11.5744
11.4642
11.5682
11.4515
11.3489
11.2415
11.3553
11.2415
11.1289
11.4261
11.5185
11.3883
11.2973
11.6065
11.6903
11.5577
11.475
11.3378
11.4192
12.7217
12.8409
12.7884
12.67
12.4668
12.597
12.5459
12.4162
11.1074
11.2878
11.2379
11.0588
11.4611
11.6275
11.5758
11.4102
11.3564
11.521
11.4629
11.2995
11.007
12.0828
12.0855
12.2554
12.2525
12.0774
12.0801
11.8973
11.8947
11.7044
11.7069
11.9023
11.8999
11.7095
11.7116
12.5589
12.6906
12.6452
12.5143
12.8165
12.9367
12.8903
12.7705
13.31
13.4927
13.5301
13.4294
13.3922
13.2867
13.3236
13.2126
13.1761
13.2053
13.2473
13.1371
13.0954
12.7884
12.8408
12.7217
12.67
12.8901
12.9364
12.8163
12.7704
12.6452
11.1851
11.1293
10.9521
11.5575
11.7068
11.6404
11.4924
11.8499
11.9869
11.9185
11.7824
11.7112
11.8463
11.7701
11.6364
11.4235
11.5704
11.4967
11.3509
13.4098
13.4527
13.3524
12.9765
12.9006
12.9861
12.9054
12.8205
12.7361
12.8205
13.0629
12.9862
12.9006
12.9767
13.4958
13.4332
13.3537
13.4161
13.3668
13.2967
13.2183
13.2879
13.2048
13.1357
14.4172
14.6264
14.5747
14.554
14.6058
14.5195
14.4607
14.4401
14.4987
14.476
14.4172
14.3922
14.4511
14.5831
14.5312
14.5064
14.5581
13.2228
13.1449
13.0676
13.1449
13.0629
13.9983
13.9476
13.8825
13.9331
13.8936
13.8362
13.7718
13.8288
13.7603
13.7036
13.6314
13.6879
13.864
13.8137
13.741
13.7911
11.3274
11.2265
11.1006
11.2002
11.1206
11.0097
13.0489
13.1173
13.332
13.2701
13.1823
13.2435
14.1717
14.1327
14.0669
14.1059
14.0908
14.046
13.9806
14.0252
13.9557
13.9113
13.8382
13.8823
14.0362
13.9973
13.9238
13.9624
14.6947
14.7436
14.7507
14.7002
14.6968
14.7474
14.6462
14.5885
14.585
14.6427
14.6381
14.5802
14.5742
14.6323
14.7431
14.6923
14.6867
14.7376
14.9196
14.8821
14.8793
14.8272
14.7851
14.7891
14.8313
14.9019
14.866
14.8703
14.9063
14.731
14.6826
14.687
14.7356
14.6305
14.5749
14.5791
14.6349
14.6387
14.5828
14.5859
14.6421
14.7398
14.691
13.9347
13.9231
14.0157
14.1983
14.115
14.1036
14.1869
14.4639
14.3977
14.3838
14.4501
14.3274
14.253
14.2392
14.3135
14.2979
14.2236
14.2061
14.2806
14.4346
14.3682
14.3509
14.9171
14.8415
14.7977
14.7946
14.8385
14.8345
14.7904
14.7851
14.8294
14.9134
14.8755
14.8704
14.9085
14.2166
14.1336
14.1249
14.2082
14.0459
13.9535
13.9448
14.0372
14.0272
14.8526
14.8759
14.8695
14.8348
14.841
14.803
14.797
14.7561
14.7619
14.8143
14.8088
14.7676
14.7728
14.863
14.8563
14.8219
14.8284
14.8496
14.8427
14.8086
14.8153
12.5592
12.3967
12.3859
12.1611
12.1767
12.0005
11.9853
12.1909
12.2035
12.027
12.0144
11.8309
11.8432
11.6519
11.64
11.8021
11.8172
11.6265
11.6115
14.8879
14.8821
14.8469
14.5465
14.5518
14.6577
14.6522
14.6058
14.6112
14.6467
14.6413
14.5951
14.6004
14.5506
14.5454
14.4921
14.4973
14.5612
14.5559
14.5024
14.5075
14.4713
14.4661
14.4038
14.409
14.7779
14.7715
14.7311
14.7374
14.7908
14.7844
14.7436
14.7499
14.7054
14.6996
14.6521
14.6578
14.6935
14.6874
14.6403
14.6462
14.5954
14.5895
14.5352
14.541
14.6066
14.6011
10.8009
10.7255
10.5568
10.6305
14.2102
14.2443
14.178
14.1441
14.2758
14.3048
14.2384
14.2094
14.1391
14.1681
14.0936
14.0649
14.0741
14.1078
14.0337
14
13.5652
10.8873
10.9963
10.8666
10.7592
10.6253
10.7312
11.0673
10.9692
10.8322
10.9285
11.1215
11.0433
10.8875
10.9645
10.9609
10.8743
10.7219
10.8067
10.6462
10.563
10.3974
10.4792
12.6781
12.5226
12.536
12.3737
12.3602
12.4918
12.5079
12.3457
12.3299
12.853
12.8641
12.7149
12.7039
12.8741
12.8826
12.7334
12.7247
12.5689
12.5775
12.4149
12.4065
12.5482
13.5978
13.4965
13.4641
13.6283
13.6563
13.5547
13.5267
13.4201
13.4479
13.3358
13.3084
12.6916
12.8407
12.827
12.6469
12.6632
12.8121
12.7955
13.2468
13.2786
13.3902
13.358
14.8014
14.7817
14.789
14.8158
14.8087
14.8344
14.8414
14.8655
14.8585
14.8273
14.8297
14.8539
14.8038
14.7768
14.7743
15.1421
15.1464
15.1684
15.1636
15.1464
15.1422
15.1662
15.1695
15.1857
15.1834
14.9371
14.9514
14.9337
14.9192
14.9137
14.9245
14.9063
14.8951
14.8742
14.8853
14.862
14.8506
14.8984
14.9136
14.8908
14.8754
14.8506
14.8662
14.8404
14.8245
14.8252
14.8369
14.8105
14.7986
14.8515
15.0652
14.9429
14.8812
14.9107
14.9718
14.9941
14.9336
14.9505
15.0104
15.0862
15.0447
15.0604
15.1011
15.1941
15.1833
15.1855
15.1958
15.1659
15.1419
15.1461
15.1692
15.1682
15.1458
15.1419
15.1635
15.1942
15.1958
15.1784
15.1839
15.1933
15.1867
14.8442
14.7997
14.8622
14.9063
14.7461
14.6829
14.746
14.809
14.8622
14.7996
14.8444
14.9066
14.9589
14.915
14.9589
15.0022
15.0375
14.9947
15.0231
14.866
14.868
14.8956
14.8937
14.8001
14.8081
14.8554
14.8471
14.8174
14.8271
14.8751
14.8648
14.9024
14.9133
14.9423
14.9311
14.8842
14.8927
14.9208
14.912
15.0616
15.0808
15.0735
15.0537
15.0996
6.89548
5.34018
4.48922
4.49071
5.34043
5.33927
4.48977
4.4864
5.33674
6.8939
6.14006
6.13776
6.8903
14.7823
14.784
14.8311
14.8292
14.7874
14.7929
14.8402
14.8348
14.8717
14.8771
14.9049
14.8994
14.9421
14.9305
14.9486
14.9264
14.9079
14.9679
14.9882
14.9669
14.9462
14.9227
14.9439
14.9196
14.8979
14.8836
14.9025
14.8773
14.8581
14.9401
14.9505
14.9394
14.9287
14.9625
14.9759
14.9655
14.9517
15.1179
15.1122
15.0931
15.0825
15.1024
15.089
15.0685
15.0421
15.0623
15.0477
15.0267
15.0089
15.0302
15.0102
14.9884
15.0516
15.0729
15.0541
15.0323
15.011
15.0334
15.0113
14.9883
14.9659
14.9884
14.9651
0.539511
1.61094
3.58306
2.62553
2.62585
3.58357
6.88934
6.13614
6.13859
6.89296
5.3352
4.48428
4.48552
5.33696
5.33833
4.48668
4.48773
5.33938
6.89454
6.1401
6.14075
6.89408
3.59145
2.63131
2.63399
10.9473
10.9518
11.3813
10.4846
9.98686
9.99175
10.4892
10.4932
9.99442
9.99795
10.497
11.385
10.9562
10.9602
11.3897
3.58086
2.62387
2.62488
3.58215
1.60973
0.539106
0.54478
1.6125
1.61291
0.544915
10.9727
10.9771
11.4068
11.4115
10.9814
10.9854
11.4158
10.517
10.0165
10.02
10.5206
10.5237
10.0229
10.0251
10.5258
11.4196
10.9887
10.9913
11.4225
13.7115
13.5761
13.4416
13.5763
13.4244
13.2562
3.59548
1.61469
0.540796
0.546803
1.61824
1.62033
0.547516
0.547842
1.62109
3.59571
2.63588
2.63668
3.59663
11.3932
10.9642
10.9683
11.3969
10.5009
10.0016
10.0053
10.5049
10.509
10.0091
10.0129
10.513
11.4019
14.9672
14.9607
15.0162
15.0068
14.9519
14.9415
14.9957
15.0867
15.0514
15.0395
15.074
15.1774
15.1695
15.1583
15.1651
15.1556
15.1349
15.1252
15.1452
15.1326
15.1135
15.1
15.1184
15.151
15.1449
15.193
15.1837
15.1782
15.1867
15.1109
15.0706
15.0761
15.1153
15.0214
14.962
14.969
15.0276
15.0297
14.9719
14.9711
15.0281
15.1158
15.0774
15.075
15.1127
15.1065
15.0696
15.0616
15.0976
15.0235
15.0952
15.1125
15.093
15.075
15.0552
15.0759
15.0551
15.0337
9.44495
8.86903
8.87035
9.44743
8.25194
7.59289
7.59535
8.25354
8.25401
7.59577
7.59412
8.25314
9.44833
8.87097
8.87072
9.44765
11.3758
15.1299
15.1352
15.1598
15.1701
15.1556
15.1446
15.1767
15.1792
15.1665
15.1632
15.1475
15.1516
15.1351
15.1302
15.1273
15.1392
15.1212
15.1086
15.0934
15.1129
15.0953
15.0753
15.1306
15.1465
15.1305
15.1139
8.61098
9.16828
9.21793
7.22954
7.1683
7.78482
7.8524
7.10071
7.02327
7.62497
7.70925
8.27831
8.18694
8.71009
8.80946
8.43438
8.36065
8.89791
8.9774
9.48326
9.39832
9.86351
9.95372
9.3039
9.20074
8.81686
8.66251
9.081
9.24493
9.64158
9.4687
9.82727
10.0087
9.9422
9.79907
10.1738
10.3241
7.41312
7.37693
8.01419
8.05549
7.33293
7.28432
7.91284
7.96671
8.559
8.5003
9.04854
9.11196
8.65704
0.433925
0.42756
1.26152
1.29451
0.414518
0.394751
1.17706
1.22246
1.97727
1.90526
2.57984
2.68102
2.10038
2.04221
2.77173
2.85205
2.08043
1.5459
1.6491
2.2247
0.960028
0.322302
0.348399
1.02463
1.08098
9.65248
9.76342
10.1893
10.072
10.4606
10.5839
10.3905
10.2952
10.6952
10.7952
9.74116
9.68768
10.171
10.2277
9.62733
9.55939
10.0346
10.1068
10.5522
10.4759
10.885
10.9651
10.6801
10.62
11.0363
11.0992
10.9679
10.964
11.3929
11.3971
10.9768
10.9722
11.4019
11.4069
10.0226
10.0228
10.5226
10.5234
10.0198
10.0167
10.5166
10.5202
10.985
10.9812
11.4118
11.4161
10.9894
10.9878
11.4195
11.4208
0.498545
11.3891
7.60969
7.60937
8.26962
8.27108
7.60688
7.60227
8.26276
8.26683
8.88512
8.88136
9.45831
9.46344
8.89054
8.88821
9.46682
9.46835
10.0115
10.0062
10.5077
10.5122
10.0025
10.0006
10.5004
10.5037
5.67656
5.29199
5.18863
5.80703
5.92401
8.4931
8.30805
8.70501
8.90141
8.10609
7.88463
8.25663
8.49048
8.84629
8.60007
8.9168
9.17504
9.27932
9.07229
9.41168
9.62868
9.0852
8.95759
9.39419
9.52978
0.498454
1.47381
1.48816
0.4922
0.479742
1.43181
1.45511
2.36385
2.32831
3.16977
3.21981
2.42163
2.39486
3.26304
3.29951
3.89184
3.82112
4.52739
4.6148
3.74049
3.6498
4.32144
4.42986
5.07449
4.9488
5.53241
8.21983
8.2351
7.57741
7.58654
8.24641
9.42911
8.85177
8.86467
9.44204
6.75942
6.02233
6.04534
6.78567
5.23828
4.40497
4.41893
5.25721
5.27347
4.43266
4.44437
5.2873
6.80923
6.06467
6.08069
6.82657
10.3891
10.7939
9.04712
8.4982
8.55741
9.11206
7.90998
7.28108
7.32996
7.96416
8.01166
7.37331
7.40975
8.05294
9.1685
8.60944
8.65495
9.21663
9.38797
8.81437
8.83512
9.41113
8.20025
7.54493
7.56357
0.540603
1.61422
3.59414
2.63238
2.63095
3.59152
11.4219
10.9892
10.9918
11.4252
10.5222
10.0201
10.0238
10.5252
10.5257
10.0245
10.0221
10.5239
11.4255
10.9921
10.9905
11.4228
6.89501
6.14184
6.14142
3.51377
2.57543
2.58597
3.5291
1.58067
0.529412
0.536892
1.58892
1.59399
0.538572
0.534457
1.59584
3.54023
2.59442
2.60098
3.54928
3.59015
2.62995
2.63207
3.59369
1.61361
0.5404
0.546105
1.61654
1.61673
0.54617
6.36521
6.74727
5.70368
5.27871
5.50579
5.95203
6.1797
5.71329
5.90149
6.38807
7.01369
6.61251
6.83981
7.25718
8.91668
8.59989
8.84583
9.17471
8.2565
7.88464
8.1059
8.49012
8.70406
8.308
8.49126
0.367251
0.378954
1.12978
2.35483
1.74253
1.82693
2.47096
5.90142
5.71333
6.17957
6.38765
5.50591
5.27884
5.70373
5.95202
6.36514
6.09649
6.45758
6.7472
6.83931
6.6123
7.01352
7.25689
6.4576
6.09649
4.31304
4.34296
5.16066
5.1905
4.36667
4.38819
5.21619
6.6918
5.96498
5.99562
6.72794
10.4584
10.0699
10.1879
10.5828
9.65034
9.19846
9.30475
9.76243
9.86282
9.39932
9.48242
9.95218
10.694
10.294
8.89953
9.41111
9.07129
9.27757
9.627
8.20827
7.72203
7.85588
8.35366
7.19838
6.63677
6.7496
7.32181
7.43325
6.85079
6.94052
7.53344
8.48508
7.97739
8.08732
8.60275
6.60867
5.89158
5.93025
6.65276
5.12635
0.413409
0.535614
0.184618
0.143282
0.0942529
0.269916
0.0942531
0.0319989
12.821
12.9818
13.1453
12.9818
13.1269
13.2573
13.4249
13.2926
13.442
13.576
13.7116
13.5761
13.127
13.2926
13.425
13.2573
13.3738
1.6445
1.34737
1.5599
1.16976
1.01525
1.75086
1.92297
1.4321
1.30767
0.818583
0.891259
0.299307
0.279545
0.642037
0.735842
0.251864
0.220433
0.184616
0.535608
0.413407
0.143281
0.841028
1.1094
0.841033
0.642674
14.4518
14.1598
14.2698
14.3545
14.2442
13.374
13.5434
13.6488
13.4779
13.696
13.8328
13.9406
13.8026
13.8969
14.0359
14.1196
13.98
13.57
13.742
13.8238
13.6505
11.7979
11.8093
12.1781
12.1663
13.4777
13.6485
13.5432
13.5695
13.6504
13.8237
13.7417
13.8967
13.9796
14.1192
14.0356
13.6958
13.8024
13.9404
13.8328
13.9551
14.0637
14.1731
14.0638
14.1596
14.2438
14.3542
14.2696
14.3667
14.4516
14.5368
4.95012
5.80781
5.92708
5.29539
5.19088
4.52989
4.61909
3.89638
3.8224
4.32282
4.43138
3.74176
3.65056
6.03594
6.13478
5.47692
5.39046
6.2248
6.30637
5.6268
5.55549
4.84021
4.90105
4.12701
4.07674
4.28176
4.24927
4.95606
5.00555
4.21296
4.17232
3.33804
3.36965
2.47356
2.45114
3.39775
3.42252
2.51045
2.49308
1.53353
1.54157
0.516385
0.518512
1.50942
1.52274
0.514946
0.510567
5.53302
5.67762
5.07592
1.75079
1.30761
1.16972
1.55986
1.34735
1.01523
0.251855
0.735818
0.642024
0.220428
2.37124
2.77966
2.51793
2.15264
3.154
3.49435
3.15407
2.85032
2.51797
2.77976
2.37136
2.15271
1.91159
2.22959
1.91162
4.69993
4.77337
4.02121
3.96218
3.16823
3.21888
2.36418
2.32798
3.26292
3.30257
2.42564
2.39682
1.47647
1.49406
0.505433
0.499492
1.43193
1.45589
0.492595
0.479819
0.299285
0.891194
0.818543
0.27953
1.432
1.92285
11.4066
11.5154
10.9488
10.8199
11.1515
11.2856
11.5959
11.4569
11.7376
11.8811
11.834
11.7213
12.0106
12.127
12.3958
12.276
12.519
12.6418
12.1428
11.9952
12.2309
12.3823
12.601
12.4461
12.642
14.8001
14.8774
14.887
14.8211
14.8161
14.8949
14.9006
11.4875
11.4215
11.7774
11.8457
11.3472
11.2635
11.613
11.7
12.0252
11.9351
12.2313
12.3243
12.1762
12.1053
12.4069
12.4798
11.1697
11.0651
13.1025
13.1143
13.3748
13.383
13.1226
13.1278
13.388
13.8348
13.62
13.6247
13.8392
13.8407
13.6265
13.6259
13.8397
13.3902
13.1303
13.1304
13.39
13.3876
13.1292
13.1247
13.3831
13.8366
13.623
12.8
12.8663
12.7407
12.9426
13.0708
12.7586
12.6836
12.9367
13.0134
12.5987
12.503
12.7518
12.8498
13.079
12.9788
13.1855
13.2876
13.246
13.1678
13.3782
13.4574
13.8157
13.6002
13.612
13.8271
13.3629
12.5363
12.8474
12.8466
13.1316
13.1321
13.3917
13.3916
13.1306
13.1276
13.3863
13.3898
13.6253
13.6212
13.8337
13.8384
13.628
13.6276
13.8413
13.8421
13.1033