# vtk DataFile Version 4.2 
output from GascoigneStd
ASCII
DATASET UNSTRUCTURED_GRID
POINTS 1089 DOUBLE 
0 0  0
1 0  0
1 1  0
0 1  0
0.5 0.5  0
0.5 0  0
1 0.5  0
0 0.5  0
0.5 1  0
0.25 0.25  0
0.75 0.25  0
0.75 0.75  0
0.25 0.75  0
0.25 0  0
0.75 0  0
0 0.25  0
1 0.25  0
1 0.75  0
0.5 0.25  0
0.75 0.5  0
0.75 1  0
0 0.75  0
0.25 0.5  0
0.25 1  0
0.5 0.75  0
0.125 0.125  0
0.375 0.125  0
0.375 0.375  0
0.125 0.375  0
0.625 0.125  0
0.875 0.125  0
0.875 0.375  0
0.625 0.375  0
0.625 0.625  0
0.875 0.625  0
0.875 0.875  0
0.625 0.875  0
0.125 0.625  0
0.375 0.625  0
0.375 0.875  0
0.125 0.875  0
0.125 0  0
0 0.125  0
0.875 0  0
1 0.125  0
0.375 0  0
0.625 0  0
1 0.875  0
0.25 0.125  0
0.5 0.375  0
0 0.375  0
1 0.375  0
0.875 1  0
0.5 0.125  0
0.625 0.5  0
1 0.625  0
0.125 0.25  0
0.75 0.125  0
0 0.875  0
0.875 0.5  0
0.375 0.5  0
0.875 0.25  0
0.125 1  0
0.375 0.25  0
0.625 0.25  0
0.5 0.625  0
0.875 0.75  0
0.625 1  0
0 0.625  0
0.125 0.5  0
0.75 0.375  0
0.75 0.625  0
0.25 0.375  0
0.75 0.875  0
0.375 1  0
0.5 0.875  0
0.125 0.75  0
0.25 0.625  0
0.625 0.75  0
0.25 0.875  0
0.375 0.75  0
0.0625 0.0625  0
0.1875 0.0625  0
0.1875 0.1875  0
0.0625 0.1875  0
0.3125 0.0625  0
0.4375 0.0625  0
0.4375 0.1875  0
0.3125 0.1875  0
0.3125 0.3125  0
0.4375 0.3125  0
0.4375 0.4375  0
0.3125 0.4375  0
0.0625 0.3125  0
0.1875 0.3125  0
0.1875 0.4375  0
0.0625 0.4375  0
0.5625 0.0625  0
0.6875 0.0625  0
0.6875 0.1875  0
0.5625 0.1875  0
0.8125 0.0625  0
0.9375 0.0625  0
0.9375 0.1875  0
0.8125 0.1875  0
0.8125 0.3125  0
0.9375 0.3125  0
0.9375 0.4375  0
0.8125 0.4375  0
0.5625 0.3125  0
0.6875 0.3125  0
0.6875 0.4375  0
0.5625 0.4375  0
0.5625 0.5625  0
0.6875 0.5625  0
0.6875 0.6875  0
0.5625 0.6875  0
0.8125 0.5625  0
0.9375 0.5625  0
0.9375 0.6875  0
0.8125 0.6875  0
0.8125 0.8125  0
0.9375 0.8125  0
0.9375 0.9375  0
0.8125 0.9375  0
0.5625 0.8125  0
0.6875 0.8125  0
0.6875 0.9375  0
0.5625 0.9375  0
0.0625 0.5625  0
0.1875 0.5625  0
0.1875 0.6875  0
0.0625 0.6875  0
0.3125 0.5625  0
0.4375 0.5625  0
0.4375 0.6875  0
0.3125 0.6875  0
0.3125 0.8125  0
0.4375 0.8125  0
0.4375 0.9375  0
0.3125 0.9375  0
0.0625 0.8125  0
0.1875 0.8125  0
0.1875 0.9375  0
0.0625 0.9375  0
0.0625 0  0
0 0.0625  0
0.9375 0  0
1 0.0625  0
1 0.9375  0
0.4375 0  0
0.5625 0  0
0.5 0.4375  0
0.1875 0  0
0.9375 1  0
0.25 0.1875  0
0 0.1875  0
0 0.4375  0
0.8125 0  0
1 0.4375  0
0.3125 0  0
0.5 0.0625  0
0.5625 0.5  0
0.6875 0  0
1 0.1875  0
0.25 0.0625  0
1 0.5625  0
0 0.9375  0
0.4375 0.5  0
1 0.8125  0
0.1875 0.25  0
0 0.3125  0
0.9375 0.5  0
0.0625 1  0
0.125 0.0625  0
0.0625 0.125  0
0.5 0.3125  0
0.75 0.1875  0
1 0.3125  0
0.5 0.5625  0
0.0625 0.25  0
0.375 0.0625  0
0.5 0.1875  0
0.75 0.0625  0
0.8125 0.25  0
0.3125 0.25  0
1 0.6875  0
0.8125 1  0
0.1875 0.125  0
0.875 0.0625  0
0.6875 0.5  0
0.3125 0.125  0
0.6875 0.25  0
0.9375 0.125  0
0.625 0.0625  0
0.5625 1  0
0 0.5625  0
0.4375 0.375  0
0.0625 0.5  0
0.9375 0.25  0
0.8125 0.75  0
0.0625 0.375  0
0.8125 0.5  0
0.4375 0.125  0
0 0.8125  0
0.75 0.3125  0
0.125 0.1875  0
0.4375 0.25  0
0.25 0.3125  0
0.5625 0.375  0
0.3125 0.5  0
0.5625 0.125  0
0.5625 0.25  0
0.9375 0.375  0
0.75 0.6875  0
0.9375 0.875  0
0.4375 1  0
0.9375 0.75  0
0.5 0.9375  0
0.125 0.3125  0
0.75 0.8125  0
0.1875 1  0
0.6875 0.125  0
0.625 0.4375  0
0.375 0.4375  0
0.8125 0.125  0
0.625 0.5625  0
0.875 0.9375  0
0.6875 1  0
0.1875 0.75  0
0.375 0.1875  0
0.75 0.4375  0
0.6875 0.75  0
0.5 0.6875  0
0.9375 0.625  0
0.25 0.6875  0
0 0.6875  0
0.375 0.3125  0
0.875 0.4375  0
0.75 0.5625  0
0.1875 0.5  0
0.875 0.1875  0
0.25 0.8125  0
0.875 0.3125  0
0.3125 0.75  0
0.625 0.1875  0
0.875 0.5625  0
0.75 0.9375  0
0.25 0.4375  0
0.625 0.3125  0
0.125 0.4375  0
0.0625 0.75  0
0.3125 1  0
0.5625 0.625  0
0.375 0.5625  0
0.0625 0.875  0
0.3125 0.375  0
0.5 0.8125  0
0.25 0.5625  0
0.1875 0.375  0
0.875 0.6875  0
0.8125 0.375  0
0.875 0.8125  0
0.6875 0.375  0
0.5625 0.75  0
0.25 0.9375  0
0.125 0.9375  0
0.625 0.9375  0
0.4375 0.625  0
0.6875 0.625  0
0.4375 0.75  0
0.8125 0.625  0
0.0625 0.625  0
0.125 0.5625  0
0.8125 0.875  0
0.6875 0.875  0
0.625 0.6875  0
0.5625 0.875  0
0.125 0.6875  0
0.375 0.9375  0
0.625 0.8125  0
0.1875 0.625  0
0.4375 0.875  0
0.3125 0.625  0
0.125 0.8125  0
0.375 0.6875  0
0.3125 0.875  0
0.375 0.8125  0
0.1875 0.875  0
0.03125 0.03125  0
0.09375 0.03125  0
0.09375 0.09375  0
0.03125 0.09375  0
0.15625 0.03125  0
0.21875 0.03125  0
0.21875 0.09375  0
0.15625 0.09375  0
0.15625 0.15625  0
0.21875 0.15625  0
0.21875 0.21875  0
0.15625 0.21875  0
0.03125 0.15625  0
0.09375 0.15625  0
0.09375 0.21875  0
0.03125 0.21875  0
0.28125 0.03125  0
0.34375 0.03125  0
0.34375 0.09375  0
0.28125 0.09375  0
0.40625 0.03125  0
0.46875 0.03125  0
0.46875 0.09375  0
0.40625 0.09375  0
0.40625 0.15625  0
0.46875 0.15625  0
0.46875 0.21875  0
0.40625 0.21875  0
0.28125 0.15625  0
0.34375 0.15625  0
0.34375 0.21875  0
0.28125 0.21875  0
0.28125 0.28125  0
0.34375 0.28125  0
0.34375 0.34375  0
0.28125 0.34375  0
0.40625 0.28125  0
0.46875 0.28125  0
0.46875 0.34375  0
0.40625 0.34375  0
0.40625 0.40625  0
0.46875 0.40625  0
0.46875 0.46875  0
0.40625 0.46875  0
0.28125 0.40625  0
0.34375 0.40625  0
0.34375 0.46875  0
0.28125 0.46875  0
0.03125 0.28125  0
0.09375 0.28125  0
0.09375 0.34375  0
0.03125 0.34375  0
0.15625 0.28125  0
0.21875 0.28125  0
0.21875 0.34375  0
0.15625 0.34375  0
0.15625 0.40625  0
0.21875 0.40625  0
0.21875 0.46875  0
0.15625 0.46875  0
0.03125 0.40625  0
0.09375 0.40625  0
0.09375 0.46875  0
0.03125 0.46875  0
0.53125 0.03125  0
0.59375 0.03125  0
0.59375 0.09375  0
0.53125 0.09375  0
0.65625 0.03125  0
0.71875 0.03125  0
0.71875 0.09375  0
0.65625 0.09375  0
0.65625 0.15625  0
0.71875 0.15625  0
0.71875 0.21875  0
0.65625 0.21875  0
0.53125 0.15625  0
0.59375 0.15625  0
0.59375 0.21875  0
0.53125 0.21875  0
0.78125 0.03125  0
0.84375 0.03125  0
0.84375 0.09375  0
0.78125 0.09375  0
0.90625 0.03125  0
0.96875 0.03125  0
0.96875 0.09375  0
0.90625 0.09375  0
0.90625 0.15625  0
0.96875 0.15625  0
0.96875 0.21875  0
0.90625 0.21875  0
0.78125 0.15625  0
0.84375 0.15625  0
0.84375 0.21875  0
0.78125 0.21875  0
0.78125 0.28125  0
0.84375 0.28125  0
0.84375 0.34375  0
0.78125 0.34375  0
0.90625 0.28125  0
0.96875 0.28125  0
0.96875 0.34375  0
0.90625 0.34375  0
0.90625 0.40625  0
0.96875 0.40625  0
0.96875 0.46875  0
0.90625 0.46875  0
0.78125 0.40625  0
0.84375 0.40625  0
0.84375 0.46875  0
0.78125 0.46875  0
0.53125 0.28125  0
0.59375 0.28125  0
0.59375 0.34375  0
0.53125 0.34375  0
0.65625 0.28125  0
0.71875 0.28125  0
0.71875 0.34375  0
0.65625 0.34375  0
0.65625 0.40625  0
0.71875 0.40625  0
0.71875 0.46875  0
0.65625 0.46875  0
0.53125 0.40625  0
0.59375 0.40625  0
0.59375 0.46875  0
0.53125 0.46875  0
0.53125 0.53125  0
0.59375 0.53125  0
0.59375 0.59375  0
0.53125 0.59375  0
0.65625 0.53125  0
0.71875 0.53125  0
0.71875 0.59375  0
0.65625 0.59375  0
0.65625 0.65625  0
0.71875 0.65625  0
0.71875 0.71875  0
0.65625 0.71875  0
0.53125 0.65625  0
0.59375 0.65625  0
0.59375 0.71875  0
0.53125 0.71875  0
0.78125 0.53125  0
0.84375 0.53125  0
0.84375 0.59375  0
0.78125 0.59375  0
0.90625 0.53125  0
0.96875 0.53125  0
0.96875 0.59375  0
0.90625 0.59375  0
0.90625 0.65625  0
0.96875 0.65625  0
0.96875 0.71875  0
0.90625 0.71875  0
0.78125 0.65625  0
0.84375 0.65625  0
0.84375 0.71875  0
0.78125 0.71875  0
0.78125 0.78125  0
0.84375 0.78125  0
0.84375 0.84375  0
0.78125 0.84375  0
0.90625 0.78125  0
0.96875 0.78125  0
0.96875 0.84375  0
0.90625 0.84375  0
0.90625 0.90625  0
0.96875 0.90625  0
0.96875 0.96875  0
0.90625 0.96875  0
0.78125 0.90625  0
0.84375 0.90625  0
0.84375 0.96875  0
0.78125 0.96875  0
0.53125 0.78125  0
0.59375 0.78125  0
0.59375 0.84375  0
0.53125 0.84375  0
0.65625 0.78125  0
0.71875 0.78125  0
0.71875 0.84375  0
0.65625 0.84375  0
0.65625 0.90625  0
0.71875 0.90625  0
0.71875 0.96875  0
0.65625 0.96875  0
0.53125 0.90625  0
0.59375 0.90625  0
0.59375 0.96875  0
0.53125 0.96875  0
0.03125 0.53125  0
0.09375 0.53125  0
0.09375 0.59375  0
0.03125 0.59375  0
0.15625 0.53125  0
0.21875 0.53125  0
0.21875 0.59375  0
0.15625 0.59375  0
0.15625 0.65625  0
0.21875 0.65625  0
0.21875 0.71875  0
0.15625 0.71875  0
0.03125 0.65625  0
0.09375 0.65625  0
0.09375 0.71875  0
0.03125 0.71875  0
0.28125 0.53125  0
0.34375 0.53125  0
0.34375 0.59375  0
0.28125 0.59375  0
0.40625 0.53125  0
0.46875 0.53125  0
0.46875 0.59375  0
0.40625 0.59375  0
0.40625 0.65625  0
0.46875 0.65625  0
0.46875 0.71875  0
0.40625 0.71875  0
0.28125 0.65625  0
0.34375 0.65625  0
0.34375 0.71875  0
0.28125 0.71875  0
0.28125 0.78125  0
0.34375 0.78125  0
0.34375 0.84375  0
0.28125 0.84375  0
0.40625 0.78125  0
0.46875 0.78125  0
0.46875 0.84375  0
0.40625 0.84375  0
0.40625 0.90625  0
0.46875 0.90625  0
0.46875 0.96875  0
0.40625 0.96875  0
0.28125 0.90625  0
0.34375 0.90625  0
0.34375 0.96875  0
0.28125 0.96875  0
0.03125 0.78125  0
0.09375 0.78125  0
0.09375 0.84375  0
0.03125 0.84375  0
0.15625 0.78125  0
0.21875 0.78125  0
0.21875 0.84375  0
0.15625 0.84375  0
0.15625 0.90625  0
0.21875 0.90625  0
0.21875 0.96875  0
0.15625 0.96875  0
0.03125 0.90625  0
0.09375 0.90625  0
0.09375 0.96875  0
0.03125 0.96875  0
0.03125 0  0
0 0.03125  0
0.96875 0  0
1 0.03125  0
1 0.96875  0
0.46875 0  0
0.96875 1  0
0.5 0.46875  0
0.53125 0  0
0.25 0.21875  0
0 0.46875  0
1 0.46875  0
0.53125 0.5  0
0.21875 0  0
0.5 0.03125  0
0 0.96875  0
0 0.21875  0
1 0.53125  0
0.46875 0.5  0
0.78125 0  0
0.28125 0  0
0.03125 1  0
0.71875 0  0
0.96875 0.5  0
0.25 0.03125  0
0.21875 0.25  0
1 0.21875  0
0.5 0.53125  0
1 0.78125  0
0.09375 0  0
0 0.28125  0
0.75 0.21875  0
0 0.09375  0
0.90625 0  0
1 0.09375  0
1 0.28125  0
0.78125 0.25  0
0.15625 0  0
0.28125 0.25  0
0.5 0.28125  0
0.03125 0.25  0
0.40625 0  0
1 0.90625  0
0.59375 0  0
0.75 0.03125  0
0 0.15625  0
0.125 0.09375  0
0.09375 0.125  0
0.5 0.21875  0
0.5 0.40625  0
0.84375 0  0
0.71875 0.25  0
1 0.71875  0
0.25 0.15625  0
0.53125 1  0
0 0.53125  0
0.34375 0  0
0.03125 0.5  0
0.90625 1  0
[...]
POINT_DATA 1089
SCALARS u000 DOUBLE 
LOOKUP_TABLE default
0
0
0
0
0.062548
0
0
0
0
0.0351857
0.0351857
0.0351858
0.0351857
0
0
0
0
0
0.0469123
0.0469123
0
0
0.0469123
0
0.0469124
0.0119748
0.0256565
0.0549747
0.0256565
0.0256565
0.0119748
0.0256565
0.0549747
0.0549747
0.0256565
0.0119748
0.0256565
0.0256565
0.0549747
0.0256565
0.0119748
0
0
0
0
0
0
0
0.0205262
0.0586392
0
0
0
0.0273665
0.0586392
0
0.0205262
0.0205262
0
0.0273665
0.0586392
0.0205262
0
0.0439808
0.0439808
0.0586392
0.0205262
0
0
0.0273665
0.0439808
0.0439808
0.0439808
0.0205262
0
0.0273665
0.0205262
0.0439808
0.0439808
0.0205262
0.0439808
0.00343733
0.0089352
0.0232294
0.0089352
0.0125998
0.0144319
0.0375214
0.0327576
0.0461949
0.0529133
0.0606089
0.0529133
0.0125998
0.0327576
0.0375214
0.0144319
0.0144319
0.0125998
0.0327576
0.0375214
0.0089352
0.00343733
0.0089352
0.0232294
0.0327576
0.0125998
0.0144319
0.0375214
0.0529133
0.046195
0.0529133
0.0606089
0.0606089
0.0529133
0.046195
0.0529133
0.0375214
0.0144319
0.0125998
0.0327576
0.0232294
0.00893521
0.00343733
0.00893521
0.0375214
0.0327576
0.0125998
0.0144319
0.0144319
0.0375214
0.0327576
0.0125998
0.0529133
0.0606089
0.0529133
0.046195
0.0327576
0.0375214
0.0144319
0.0125998
0.00893521
0.0232294
0.00893521
0.00343733
0
0
0
0
0
0
0
0.0615708
0
0
0.0285891
0
0
0
0
0
0.0146609
0.0615708
0
0
0.0109966
0
0
0.0615708
0
0.0285891
0
0.014661
0
0.00641553
0.00641553
0.053753
0.0285891
0
0.0615708
0.0109966
0.0137449
0.0381169
0.0109966
0.0285891
0.0403162
0
0
0.0166782
0.00641553
0.0537531
0.0235189
0.0403162
0.00641553
0.0137449
0
0
0.057723
0.014661
0.0109966
0.0285891
0.0137449
0.0381169
0.026939
0
0.0403162
0.0166782
0.0461795
0.0403162
0.057723
0.0537531
0.026939
0.0461794
0.0137449
0.0403163
0.00641554
0
0.0109966
0.014661
0.0235189
0.0285891
0
0.0235189
0.057723
0.057723
0.0166782
0.0577231
0.00641554
0
0.0285891
0.035735
0.0461795
0.0403163
0.0537531
0.0137449
0.0403162
0
0.0503939
0.026939
0.0461795
0.0381169
0.0166782
0.0285891
0.0235189
0.0403162
0.035735
0.026939
0.0109966
0.0461795
0.0503939
0.026939
0.0109966
0
0.0577231
0.057723
0.00641554
0.0503939
0.0381169
0.0461795
0.035735
0.0235189
0.035735
0.0166782
0.0503939
0.0461795
0.0109966
0.00641554
0.0137449
0.057723
0.0503939
0.0461795
0.035735
0.0137449
0.026939
0.0166782
0.0235189
0.050394
0.026939
0.0235189
0.0137449
0.035735
0.035735
0.026939
0.0503939
0.0166782
0.0503939
0.0235189
0.035735
0.0166782
0.000917802
0.00257511
0.00722609
0.00257511
0.00399536
0.00517877
0.0145333
0.011212
0.017397
0.0225507
0.0292315
0.0225507
0.00399536
0.011212
0.0145333
0.00517877
0.00612543
0.00683539
0.0191826
0.0171901
0.00730869
0.00754533
0.0211751
0.020511
0.0318266
0.0328572
0.042592
0.041256
0.0266735
0.0297654
0.038584
0.0345758
0.0408975
0.0456385
0.0509293
0.0456385
0.0487992
0.0503795
0.05622
0.0544564
0.0582279
0.0601136
0.0620603
0.0601136
0.0487992
0.0544565
0.05622
0.0503795
0.00612543
0.0171901
0.0191826
0.00683539
0.0266735
0.0345758
0.038584
0.0297654
0.0318266
0.041256
0.042592
0.0328572
0.00730869
0.020511
0.0211751
0.00754534
0.00754533
0.00730869
0.020511
0.0211751
0.00683539
0.00612543
0.0171901
0.0191826
0.0297654
0.0266735
0.0345758
0.038584
0.0328572
0.0318266
0.041256
0.042592
0.00517877
0.00399536
0.011212
0.0145333
0.00257511
0.000917803
0.00257511
0.00722609
0.011212
0.00399536
0.00517877
0.0145333
0.0225507
0.017397
0.0225507
0.0292315
0.0345758
0.0266735
0.0297654
0.038584
0.0171901
0.00612543
0.00683539
0.0191826
0.020511
0.00730869
0.00754534
0.0211751
0.041256
0.0318266
0.0328572
0.042592
0.0503795
0.0487992
0.0544564
0.05622
0.0456385
0.0408975
0.0456385
0.0509293
0.0544564
0.0487992
0.0503795
0.05622
0.0601136
0.0582279
0.0601136
0.0620603
0.0620604
0.0601136
0.0582279
0.0601136
0.05622
0.0503795
0.0487992
0.0544565
0.0509293
0.0456386
0.0408975
0.0456386
0.05622
0.0544565
0.0487992
0.0503795
0.042592
0.0328572
0.0318267
0.041256
0.0211751
0.00754534
0.00730869
0.020511
0.0191826
0.0068354
0.00612543
0.0171901
0.038584
0.0297654
0.0266735
0.0345759
0.0292315
0.0225507
0.017397
0.0225507
0.0145333
0.00517877
0.00399536
0.011212
0.00722609
0.00257511
0.000917803
0.00257511
0.0145333
0.011212
0.00399536
0.00517877
0.042592
0.041256
0.0318267
0.0328573
0.038584
0.0345759
0.0266735
0.0297654
0.0191827
0.0171901
0.00612543
0.0068354
0.0211751
0.020511
0.0073087
0.00754534
0.00754534
0.0211751
0.020511
0.00730869
0.0328573
0.042592
0.041256
0.0318266
0.0297654
0.038584
0.0345759
0.0266735
0.0068354
0.0191826
0.0171901
0.00612543
0.0503795
0.05622
0.0544565
0.0487992
0.0601136
0.0620603
0.0601136
0.0582279
0.0544565
0.05622
0.0503795
0.0487992
0.0456386
0.0509293
0.0456386
0.0408975
0.0345759
0.038584
0.0297654
0.0266735
0.041256
0.042592
0.0328573
0.0318267
0.020511
0.0211751
0.00754534
0.00730869
0.0171901
0.0191826
0.0068354
0.00612543
0.00517877
0.0145333
0.011212
0.00399536
0.0225507
0.0292315
0.0225507
0.017397
0.011212
0.0145333
0.00517877
0.00399536
0.00257511
0.00722609
0.00257511
0.000917803
0
0
0
0
0
0
0
0.0623037
0
0.0320707
0
0
0.0623037
0
0.00757492
0
0
0
0.0623037
0
0
0
0
0.00757492
0.00568169
0.0320707
0
0.0623037
0
0
0
0.0320707
0
0
0
0
0.0320707
0
0.0379342
0.050577
0.00568169
0
0
0
0.00568169
0
0.00930214
0.00930214
0.042759
0.0603493
0
0.0379342
0
0.024741
0
0
0
0.00757492
0
0
0.0199298
0
0
0.050577
0
0
0.0320707
0.0159447
0.0144334
0.0212581
0.0379342
0.00568169
0.00331485
0
0.0603493
0.00331485
0.0246946
0.0379342
0.00930214
0
0.042759
0
0.00930214
0.0199298
0.0565779
0
0.0379343
0.0467291
0.0564404
0
0
0.00177612
0.024741
0.00710162
0.00757492
0.00177612
0.0603493
0
0.0264046
0.0199298
0.0467291
0.0320707
0.0212581
0.0144334
0.050577
0.00331485
0.00568169
0.024741
0.00461666
0.0329861
0
0.0187091
0.0159447
0.00745659
0.00331485
0.0260582
0
0.0221294
0.00461666
0.00710162
0.0264046
0.0159447
0
0.0565779
0.0320707
0.0379343
0.0308223
0.0613303
0.0603493
0.0564404
0.0199298
0
0.024741
0.00651
0.0584101
0.0100232
0.0146037
0.0246946
0.0379343
0.0423317
0.00745659
0
0.00177612
0.00930215
0.0467291
0.00177612
0.0118554
0.0565779
0.00710163
0.0246946
0.0260582
0.0074566
0.0320707
0.0565779
0.00498377
0.0144334
0.00498377
0.00773267
0.0272596
0.0309249
0.0423317
0.0379343
0.050577
0
0.0467291
0.0584101
0.0146037
0.0565779
0.00773266
0.0613303
0.00461666
0.0159447
0.0329861
0.00650999
0.00930215
0.00331485
0.0187091
0.042759
0
0
0.0613303
0.00710163
0.0100232
0.0529133
0.00651
0.0308223
0.0272596
0
0.024741
0.0074566
0.0132296
0.0535431
0.00568169
0.00461666
0.0141457
0.0212581
0.0199298
0.0264046
0.037968
0.0129557
0.0452633
0.0564404
0.0467291
0.0144334
0.0201027
0.00177612
0.00568169
0.0367469
0.0118554
0.0613303
0.0246946
0.0434656
0.0309249
0.0613303
0.0423317
0.0221294
0
0.0182694
0.0308223
0.0452633
0.00177612
0.0584101
0.0264046
0.00331485
0.0146037
0.0283483
0.0221294
0.0264046
0.0584101
0.0423317
0.0467291
0.042759
0.0529133
0.0260582
0.0118554
0.037968
0.0187091
0.0159447
0.0529133
0
0.0074566
0.00651
0.0584101
0.0100232
0.0423318
0.0535431
0.0565779
0.0555587
0.0309249
0.0467291
0.0260582
0.0594064
0.00568169
0.00710163
0.0308223
0.0201027
0.0209261
0.0146037
0.0129557
0.0324708
0.00773266
0
0.00461666
0.0141457
0.0367469
0.00498377
0.0613303
0.0309249
0.0132296
0.0565779
0.024741
0.040087
0.0212581
0.0246946
0.042091
0.0132296
0.0146037
0.0467291
0.0529133
0.00498377
0
0.00930215
0.00773267
0.0144334
0.0272596
0.0434656
0.0497869
0.0141457
0.0564404
0.0474164
0.0535431
0.0452633
0.0529134
0.0434656
0.0187091
0.0100232
0.0535431
0.0367469
0.0613303
0.0199298
0.0535431
0.0221294
0
0.00651
0.0309249
0.0272596
0.0118554
0.024741
0.0565779
0.00930215
0.0209261
0.0144334
0.0529134
0.0329861
0.040087
0.0199298
0.0423318
0.0452633
0.037968
0.0367469
0.0264046
0.00461666
0.0324708
0.0246946
0.00177612
0.0182694
0.042091
0.0423318
0.0474164
0.0283483
0.0264046
0.0613303
0.00331485
0.0584101
0.0434656
0.0594064
0.0246946
0.0555587
0.0309249
0.0367771
0.00177612
0.0584101
0.0555587
0.0343952
0.0309249
0.0199298
0.037968
0.0132296
0.0272596
0.0159447
0.0308223
0.0141457
0.0452633
0.0182694
0.0260582
0.0594064
0.0497869
0.0283483
0.0529134
0.024741
0.0264046
0.0074566
0.0529134
0.0423318
0.0144334
0.0074566
0.0246946
0.0221294
0.0485044
0.0129557
0.0309249
0
0.0518636
0.0146037
0.0159447
0.0187091
0.0474164
0.0144334
0.00331485
0.0434656
0.0201027
0.040087
0.040087
0.0329861
0.0474164
0.0584101
0.0367469
0.0555587
0.00710163
0.0594064
0.037968
0.0452634
0.0118555
0.00773267
0.00498377
0.0100232
0.0594064
0.042091
0.0474164
0.0555587
0.0497869
0.00710163
0.0260582
0.040087
0.0452634
0.0497869
0.0272596
0.042091
0.0535431
0.0129557
0.0343952
0.0159447
0.0209261
0.0201027
0.0485044
0.0324708
0.0367771
0.00461666
0.0324708
0.0209261
0.0308223
0.0146037
0.0187091
0.0434656
0.0283483
0.0518636
0.0221294
0.0535431
0.0182694
0.00498378
0.0452633
0.00773267
0.0141457
0.0272596
0.0132296
0.0497869
0.0343952
0.00710163
0.0474164
0.0367771
0.0221294
0.00651
0.0074566
0.042091
0.0272596
0.0146037
0.040087
0.0518636
0.0367469
0.040087
0.0485044
0.0308223
0.0474164
0.0187091
0.0324708
0.0209261
0.00461666
0.0474164
0.0221294
0.0594064
0.0343952
0.0367469
0.040087
0.0187091
0.00651
0.0535431
0.0555587
0.0367771
0.037968
0.0100232
0.0434656
0.0260582
0.0485044
0.0518636
0.0118555
0.0182694
0.0308223
0.0283483
0.0497869
0.0434656
0.0367469
0.037968
0.0201027
0.0518636
0.0118554
0.0129557
0.0485044
0.0260582
0.0555587
0.0367771
0.042091
0.0594064
0.042091
0.0343952
0.0485044
0.0497869
0.0518636
0.00651
0.0100232
0.0132296
0.0201027
0.0141457
0.037968
0.00773267
0.0129557
0.00498377
0.0283483
0.0141457
0.0324708
0.0182694
0.0209261
0.0594064
0.0324708
0.0555587
0.0132296
0.0367771
0.0209261
0.0497869
0.0118555
0.0343952
0.042091
0.0100232
0.0283483
0.00773267
0.0182694
0.00498377
0.0367771
0.0343952
0.0518636
0.0141457
0.0485044
0.0132296
0.0518636
0.0324708
0.0485044
0.0209261
0.0283483
0.0343952
0.0367771
0.0129557
0.0182694
0.0201027
0.0201027
0.0129557


