# vtk DataFile Version 4.2 
output from GascoigneStd, 
ASCII
DATASET UNSTRUCTURED_GRID
POINTS 397 DOUBLE 
0 0  0
1 0  0
1 1  0
0 1  0
0.5 0.5  0
0.5 0  0
1 0.5  0
0 0.5  0
0.5 1  0
0.25 0.25  0
0.75 0.25  0
0.75 0.75  0
0.25 0.75  0
0.25 0  0
0.75 0  0
0 0.25  0
1 0.25  0
1 0.75  0
0.5 0.25  0
0.75 0.5  0
0.75 1  0
0 0.75  0
0.25 0.5  0
0.25 1  0
0.5 0.75  0
0.125 0.125  0
0.375 0.125  0
0.375 0.375  0
0.125 0.375  0
0.625 0.125  0
0.875 0.125  0
0.875 0.375  0
0.625 0.375  0
0.625 0.625  0
0.875 0.625  0
0.875 0.875  0
0.625 0.875  0
0.125 0.625  0
0.375 0.625  0
0.375 0.875  0
0.125 0.875  0
0.125 0  0
0 0.125  0
0.875 0  0
1 0.125  0
0.375 0  0
0.625 0  0
1 0.875  0
0.25 0.125  0
0.5 0.375  0
0 0.375  0
1 0.375  0
0.875 1  0
0.5 0.125  0
0.625 0.5  0
1 0.625  0
0.125 0.25  0
0.75 0.125  0
0 0.875  0
0.875 0.5  0
0.375 0.5  0
0.875 0.25  0
0.125 1  0
0.375 0.25  0
0.625 0.25  0
0.5 0.625  0
0.875 0.75  0
0.625 1  0
0 0.625  0
0.125 0.5  0
0.75 0.375  0
0.75 0.625  0
0.25 0.375  0
0.75 0.875  0
0.375 1  0
0.5 0.875  0
0.125 0.75  0
0.25 0.625  0
0.625 0.75  0
0.25 0.875  0
0.375 0.75  0
0.3125 0.0625  0
0.4375 0.0625  0
0.4375 0.1875  0
0.3125 0.1875  0
0.3125 0.3125  0
0.4375 0.3125  0
0.4375 0.4375  0
0.3125 0.4375  0
0.5625 0.0625  0
0.6875 0.0625  0
0.6875 0.1875  0
0.5625 0.1875  0
0.8125 0.0625  0
0.9375 0.0625  0
0.9375 0.1875  0
0.8125 0.1875  0
0.8125 0.3125  0
0.9375 0.3125  0
0.9375 0.4375  0
0.8125 0.4375  0
0.8125 0.8125  0
0.9375 0.8125  0
0.9375 0.9375  0
0.8125 0.9375  0
0.0625 0.8125  0
0.1875 0.8125  0
0.1875 0.9375  0
0.0625 0.9375  0
0.9375 0  0
1 0.0625  0
1 0.9375  0
0.4375 0  0
0.5625 0  0
0.5 0.4375  0
0.9375 1  0
0.25 0.1875  0
0.8125 0  0
1 0.4375  0
0.3125 0  0
0.5 0.0625  0
0.6875 0  0
1 0.1875  0
0.25 0.0625  0
0 0.9375  0
0.4375 0.5  0
1 0.8125  0
0.9375 0.5  0
0.0625 1  0
0.5 0.3125  0
0.75 0.1875  0
1 0.3125  0
0.375 0.0625  0
0.5 0.1875  0
0.75 0.0625  0
0.8125 0.25  0
0.3125 0.25  0
0.8125 1  0
0.875 0.0625  0
0.3125 0.125  0
0.6875 0.25  0
0.9375 0.125  0
0.625 0.0625  0
0.4375 0.375  0
0.9375 0.25  0
0.8125 0.75  0
0.8125 0.5  0
0.4375 0.125  0
0 0.8125  0
0.75 0.3125  0
0.4375 0.25  0
0.25 0.3125  0
0.3125 0.5  0
0.5625 0.125  0
0.5625 0.25  0
0.9375 0.375  0
0.9375 0.875  0
0.9375 0.75  0
0.75 0.8125  0
0.1875 1  0
0.6875 0.125  0
0.375 0.4375  0
0.8125 0.125  0
0.875 0.9375  0
0.1875 0.75  0
0.375 0.1875  0
0.75 0.4375  0
0.375 0.3125  0
0.875 0.4375  0
0.875 0.1875  0
0.25 0.8125  0
0.875 0.3125  0
0.625 0.1875  0
0.75 0.9375  0
0.25 0.4375  0
0.0625 0.75  0
0.0625 0.875  0
0.3125 0.375  0
0.8125 0.375  0
0.875 0.8125  0
0.25 0.9375  0
0.125 0.9375  0
0.8125 0.875  0
0.125 0.8125  0
0.1875 0.875  0
0.0625 0.0625  0
0.1875 0.0625  0
0.1875 0.1875  0
0.0625 0.1875  0
0.0625 0.3125  0
0.1875 0.3125  0
0.1875 0.4375  0
0.0625 0.4375  0
0.5625 0.5625  0
0.6875 0.5625  0
0.6875 0.6875  0
0.5625 0.6875  0
0.8125 0.5625  0
0.9375 0.5625  0
0.9375 0.6875  0
0.8125 0.6875  0
0.0625 0.5625  0
0.1875 0.5625  0
0.1875 0.6875  0
0.0625 0.6875  0
0.3125 0.5625  0
0.4375 0.5625  0
0.4375 0.6875  0
0.3125 0.6875  0
0.40625 0.03125  0
0.46875 0.03125  0
0.46875 0.09375  0
0.40625 0.09375  0
0.28125 0.40625  0
0.34375 0.40625  0
0.34375 0.46875  0
0.28125 0.46875  0
0.78125 0.03125  0
0.84375 0.03125  0
0.84375 0.09375  0
0.78125 0.09375  0
0.90625 0.03125  0
0.96875 0.03125  0
0.96875 0.09375  0
0.90625 0.09375  0
0.90625 0.28125  0
0.96875 0.28125  0
0.96875 0.34375  0
0.90625 0.34375  0
0.90625 0.40625  0
0.96875 0.40625  0
0.96875 0.46875  0
0.90625 0.46875  0
0.90625 0.78125  0
0.96875 0.78125  0
0.96875 0.84375  0
0.90625 0.84375  0
0.90625 0.90625  0
0.96875 0.90625  0
0.96875 0.96875  0
0.90625 0.96875  0
0.03125 0.78125  0
0.09375 0.78125  0
0.09375 0.84375  0
0.03125 0.84375  0
0.4375 0.03125  0
0.25 0.46875  0
0.03125 0.75  0
0.875 0.90625  0
0.875 0.40625  0
0.46875 0.125  0
0.46875 0.0625  0
0.875 0.34375  0
0.9375 0.03125  0
0.96875 0.875  0
0.34375 0.375  0
0.96875 0.0625  0
0.90625 0.25  0
0.96875 0.375  0
0 0.84375  0
0.8125 0.03125  0
0.34375 0.5  0
0.40625 0.0625  0
0.875 0.84375  0
0.96875 0.9375  0
0.875 0.96875  0
0.09375 0.875  0
0.96875 0.4375  0
0.9375 0.96875  0
0.78125 0.125  0
0.375 0.46875  0
0.90625 0.75  0
0.125 0.84375  0
0.9375 0.46875  0
0.78125 0.0625  0
0.875 0.46875  0
0.96875 0.8125  0
0.4375 0.09375  0
0.96875 0.3125  0
0.84375 0.0625  0
0.90625 0.0625  0
0.875 0.28125  0
0.0625 0  0
0.03125 0.875  0
0 0.0625  0
0.9375 0.09375  0
0.3125 0.46875  0
0.9375 0.28125  0
0.875 0.78125  0
0.25 0.40625  0
0.1875 0  0
0.28125 0.375  0
0.34375 0.4375  0
0 0.1875  0
0 0.4375  0
0.5625 0.5  0
0.09375 0.75  0
0.9375 0.34375  0
0.03125 0.8125  0
1 0.5625  0
0.9375 0.40625  0
0.8125 0.09375  0
0.1875 0.25  0
0 0.3125  0
0.9375 0.84375  0
0.125 0.0625  0
0.9375 0.78125  0
0.9375 0.90625  0
0.125 0.78125  0
0.0625 0.125  0
0.5 0.5625  0
0.28125 0.4375  0
0.0625 0.25  0
1 0.6875  0
0.3125 0.40625  0
0.1875 0.125  0
0.6875 0.5  0
0.90625 0.9375  0
0.90625 0.4375  0
0 0.5625  0
0.0625 0.5  0
0.90625 0.3125  0
0.0625 0.375  0
0.125 0.1875  0
0.75 0.6875  0
0.125 0.3125  0
0.625 0.5625  0
0.0625 0.78125  0
0.90625 0.8125  0
0.0625 0.84375  0
0.6875 0.75  0
0.5 0.6875  0
0.9375 0.625  0
0.25 0.6875  0
0 0.6875  0
0.75 0.5625  0
0.1875 0.5  0
0.3125 0.75  0
0.875 0.5625  0
0.09375 0.8125  0
0.125 0.4375  0
0.5625 0.625  0
0.375 0.5625  0
0.25 0.5625  0
0.1875 0.375  0
0.875 0.6875  0
0.5625 0.75  0
0.4375 0.625  0
0.6875 0.625  0
0.4375 0.75  0
0.8125 0.625  0
0.0625 0.625  0
0.125 0.5625  0
0.96875 0  0
0.625 0.6875  0
1 0.03125  0
0.125 0.6875  0
1 0.96875  0
0.1875 0.625  0
0.3125 0.625  0
0.46875 0  0
0.96875 1  0
0.375 0.6875  0
1 0.46875  0
0.5 0.03125  0
0.78125 0  0
0.96875 0.5  0
1 0.78125  0
1 0.28125  0
0.75 0.03125  0
0.90625 0  0
1 0.09375  0
0.40625 0  0
0.375 0.09375  0
1 0.90625  0
0.84375 0  0
0.96875 0.25  0
0.90625 1  0
0.875 0.09375  0
1 0.40625  0
0 0.78125  0
0.90625 0.125  0
0.5 0.09375  0
0.40625 0.125  0
1 0.84375  0
0.28125 0.5  0
0.96875 0.75  0
0.375 0.03125  0
0.875 0.03125  0
1 0.34375  0
0.96875 0.125  0
0.90625 0.375  0
0.90625 0.5  0
0.375 0.40625  0
0.75 0.09375  0
0.90625 0.875  0
0.84375 0.125  0


CELLS 328 1640
4 353 1 355 222 
4 109 353 222 253 
4 388 221 280 138 
4 221 253 94 280 
4 370 109 253 221 
4 43 370 221 388 
4 394 220 269 57 
4 220 301 162 269 
4 274 93 301 220 
4 134 274 220 394 
4 301 219 396 162 
4 219 378 30 396 
4 279 138 378 219 
4 93 279 219 301 
4 260 218 279 93 
4 218 388 138 279 
4 375 43 388 218 
4 117 375 218 260 
4 287 226 278 98 
4 226 368 131 278 
4 376 16 368 226 
4 144 376 226 287 
4 281 225 321 171 
4 225 287 98 321 
4 257 144 287 225 
4 61 257 225 281 
4 378 224 381 30 
4 224 285 141 381 
4 280 94 285 224 
4 138 280 224 378 
4 285 223 390 141 
4 223 371 44 390 
4 256 110 371 223 
4 94 256 223 285 
4 253 222 256 94 
4 222 355 110 256 
4 291 177 314 213 
4 72 291 213 289 
4 373 212 383 26 
4 212 277 147 383 
4 262 82 277 212 
4 132 262 212 373 
4 277 211 250 147 
4 211 382 53 250 
4 251 120 382 211 
4 82 251 211 277 
4 245 210 251 82 
4 210 364 120 251 
4 360 5 364 210 
4 112 360 210 245 
4 387 209 262 132 
4 209 245 82 262 
4 372 112 245 209 
4 45 372 209 387 
4 369 217 274 134 
4 217 260 93 274 
4 365 117 260 217 
4 14 365 217 369 
4 246 216 385 22 
4 216 286 152 385 
4 311 88 286 216 
4 174 311 216 246 
4 286 215 261 152 
4 215 270 60 261 
4 292 161 270 215 
4 88 292 215 286 
4 314 214 292 88 
4 214 393 161 292 
4 255 27 393 214 
4 177 255 214 314 
4 289 213 311 174 
4 213 314 88 311 
4 317 103 268 240 
4 163 317 240 265 
4 268 239 361 115 
4 239 357 2 361 
4 264 111 357 239 
4 103 264 239 268 
4 307 238 264 103 
4 238 374 111 264 
4 254 47 374 238 
4 156 254 238 307 
4 248 237 317 163 
4 237 307 103 317 
4 395 156 307 237 
4 35 395 237 248 
4 263 236 395 35 
4 236 304 156 395 
4 328 102 304 236 
4 179 328 236 263 
4 259 244 283 58 
4 244 329 176 283 
4 298 105 329 244 
4 148 298 244 259 
4 329 243 266 176 
4 243 272 40 266 
4 339 183 272 243 
4 105 339 243 329 
4 327 242 339 105 
4 242 308 183 339 
4 296 76 308 242 
4 175 296 242 327 
4 380 241 298 148 
4 241 327 105 298 
4 247 175 327 241 
4 21 247 241 380 
4 265 240 377 52 
4 240 268 115 377 
4 267 118 363 231 
4 99 267 231 273 
4 300 230 267 99 
4 230 379 118 267 
4 258 51 379 230 
4 155 258 230 300 
4 249 229 318 168 
4 229 300 99 318 
4 391 155 300 229 
4 31 391 229 249 
4 252 228 391 31 
4 228 297 155 391 
4 321 98 297 228 
4 171 321 228 252 
4 297 227 258 155 
4 227 389 51 258 
4 278 131 389 227 
4 98 278 227 297 
4 304 235 254 156 
4 235 384 47 254 
4 276 126 384 235 
4 102 276 235 304 
4 306 234 276 102 
4 234 367 126 276 
4 386 17 367 234 
4 157 386 234 306 
4 288 233 328 179 
4 233 306 102 328 
4 271 157 306 233 
4 66 271 233 288 
4 275 232 392 59 
4 232 273 127 392 
4 318 99 273 232 
4 168 318 232 275 
4 273 231 366 127 
4 231 363 6 366 
4 125 4 310 206 
4 60 125 206 342 
4 343 205 359 77 
4 205 342 38 359 
4 152 60 342 205 
4 22 152 205 343 
4 334 204 175 21 
4 204 356 76 175 
4 351 37 356 204 
4 68 351 204 334 
4 206 310 65 347 
4 342 206 347 38 
4 38 347 207 362 
4 347 65 331 207 
4 207 331 24 349 
4 362 207 349 80 
4 77 359 208 333 
4 359 38 362 208 
4 208 362 80 337 
4 333 208 337 12 
4 11 145 101 158 
4 166 100 146 19 
4 100 168 59 146 
4 178 31 168 100 
4 70 178 100 166 
4 149 97 178 70 
4 97 171 31 178 
4 135 61 171 97 
4 10 135 97 149 
4 130 96 135 10 
4 96 169 61 135 
4 162 30 169 96 
4 57 162 96 130 
4 169 95 144 61 
4 95 122 16 144 
4 141 44 122 95 
4 30 141 95 169 
4 133 92 154 18 
4 92 172 64 154 
4 124 108 128 3 
4 108 181 62 128 
4 176 40 181 108 
4 58 176 108 124 
4 181 107 159 62 
4 107 180 23 159 
4 184 79 180 107 
4 40 184 107 181 
4 183 106 184 40 
4 106 170 79 184 
4 164 12 170 106 
4 76 164 106 183 
4 173 104 137 20 
4 104 163 52 137 
4 182 35 163 104 
4 73 182 104 173 
4 158 101 182 73 
4 101 179 35 182 
4 145 66 179 101 
4 86 129 49 143 
4 150 18 129 86 
4 63 150 86 167 
4 151 85 177 72 
4 85 167 27 177 
4 136 63 167 85 
4 9 136 85 151 
4 116 84 136 9 
4 84 165 63 136 
4 139 26 165 84 
4 48 139 84 116 
4 165 83 150 63 
4 83 133 18 150 
4 147 53 133 83 
4 26 147 83 165 
4 123 81 139 48 
4 81 132 26 139 
4 119 45 132 81 
4 13 119 81 123 
4 153 29 172 92 
4 53 153 92 133 
4 172 91 140 64 
4 91 130 10 140 
4 160 57 130 91 
4 29 160 91 172 
4 142 90 160 29 
4 90 134 57 160 
4 121 14 134 90 
4 46 121 90 142 
4 120 89 153 53 
4 89 142 29 153 
4 113 46 142 89 
4 5 113 89 120 
4 161 87 125 60 
4 87 114 4 125 
4 143 49 114 87 
4 27 143 87 161 
4 167 86 143 27 
4 34 332 199 345 
4 338 198 332 34 
4 198 299 55 332 
4 127 6 299 198 
4 59 127 198 338 
4 335 197 350 71 
4 197 338 34 350 
4 146 59 338 197 
4 19 146 197 335 
4 331 196 346 24 
4 196 354 78 346 
4 341 33 354 196 
4 65 341 196 331 
4 354 195 330 78 
4 195 324 11 330 
4 348 71 324 195 
4 33 348 195 354 
4 326 194 348 33 
4 194 335 71 348 
4 356 203 164 76 
4 203 333 12 164 
4 358 77 333 203 
4 37 358 203 356 
4 352 202 358 37 
4 202 343 77 358 
4 336 22 343 202 
4 69 336 202 352 
4 319 201 351 68 
4 201 352 37 351 
4 320 69 352 201 
4 7 320 201 319 
4 324 200 145 11 
4 200 345 66 145 
4 350 34 345 200 
4 71 350 200 324 
4 345 199 157 66 
4 199 313 17 157 
4 332 55 313 199 
4 189 325 28 322 
4 312 56 325 189 
4 15 312 189 303 
4 293 188 312 15 
4 188 323 56 312 
4 309 25 323 188 
4 42 309 188 293 
4 323 187 302 56 
4 187 116 9 302 
4 315 48 116 187 
4 25 315 187 323 
4 305 186 315 25 
4 186 123 48 315 
4 290 13 123 186 
4 41 290 186 305 
4 284 185 309 42 
4 185 305 25 309 
4 282 41 305 185 
4 0 282 185 284 
4 316 19 335 194 
4 54 316 194 326 
4 310 193 341 65 
4 193 326 33 341 
4 295 54 326 193 
4 4 295 193 310 
4 294 192 320 7 
4 192 340 69 320 
4 322 28 340 192 
4 50 322 192 294 
4 340 191 336 69 
4 191 174 22 336 
4 344 72 174 191 
4 28 344 191 340 
4 325 190 344 28 
4 190 151 72 344 
4 302 9 151 190 
4 56 302 190 325 
4 303 189 322 50 
4 18 64 32 49 
4 64 10 70 32 
4 32 70 19 54 
4 49 32 54 4 
4 24 78 36 75 
4 78 11 73 36 
4 36 73 20 67 
4 75 36 67 8 
4 12 80 39 79 
4 80 24 75 39 
4 39 75 8 74 
4 79 39 74 23 

CELL_TYPES 328
9 9 9 9 9 9 9 9 9 9 9 9 9 9 9 9 9 9 9 9 9 9 9 9 9 9 9 9 9 9 9 9 9 9 9 9 9 9 9 9 9 9 9 9 9 9 9 9 9 9 9 9 9 9 9 9 9 9 9 9 9 9 9 9 9 9 9 9 9 9 9 9 9 9 9 9 9 9 9 9 9 9 9 9 9 9 9 9 9 9 9 9 9 9 9 9 9 9 9 9 9 9 9 9 9 9 9 9 9 9 9 9 9 9 9 9 9 9 9 9 9 9 9 9 9 9 9 9 9 9 9 9 9 9 9 9 9 9 9 9 9 9 9 9 9 9 9 9 9 9 9 9 9 9 9 9 9 9 9 9 9 9 9 9 9 9 9 9 9 9 9 9 9 9 9 9 9 9 9 9 9 9 9 9 9 9 9 9 9 9 9 9 9 9 9 9 9 9 9 9 9 9 9 9 9 9 9 9 9 9 9 9 9 9 9 9 9 9 9 9 9 9 9 9 9 9 9 9 9 9 9 9 9 9 9 9 9 9 9 9 9 9 9 9 9 9 9 9 9 9 9 9 9 9 9 9 9 9 9 9 9 9 9 9 9 9 9 9 9 9 9 9 9 9 9 9 9 9 9 9 9 9 9 9 9 9 9 9 9 9 9 9 9 9 9 9 9 9 9 9 9 9 9 9 9 9 9 9 9 9 9 9 9 9 9 9 9 9 9 9 9 9 9 9 9 9 9 9 
CELL_DATA 328
SCALARS U000 DOUBLE 
LOOKUP_TABLE default
0.479526
1.03311
4.24968
3.536
1.38837
1.63405
10.2343
9.92883
7.92196
8.1675
9.40388
8.67355
6.99213
7.55094
5.09775
4.75233
1.80564
1.9224
5.64653
2.1082
2.00387
5.53655
10.6168
8.44952
8.34228
10.4639
7.6163
6.1799
5.07083
6.19434
4.1755
1.54289
1.37777
3.51463
2.52193
1.03097
15.2808
15.1585
10.6662
10.6785
8.49002
8.49036
10.6651
10.6279
8.46306
8.47964
5.66017
5.61313
2.02941
2.11162
5.62905
5.66636
2.11366
2.03469
5.42465
5.3162
1.99556
1.96571
15.058
15.1617
15.1949
15.089
15.1683
15.0982
15.1301
15.1947
15.2437
15.1813
15.246
15.3034
15.1242
15.2384
3.49544
4.14156
1.02744
0.478438
1.03005
2.51204
3.52166
1.38392
1.62895
4.23338
6.13262
5.04332
6.1636
7.56537
8.62585
6.96287
7.52661
9.36539
1.71621
4.68165
5.07037
1.91096
6.97702
8.63462
9.39002
7.52896
7.91699
9.92407
10.25
8.17665
1.99239
5.30981
5.42866
1.96682
1.5312
1.37083
2.11893
5.67699
5.70807
2.13034
2.13554
5.72067
10.6869
8.52464
8.53933
10.706
10.7056
8.53927
8.51453
10.6793
5.72009
2.13529
2.12774
5.7009
4.73654
1.80066
1.91814
5.0844
5.30636
1.99235
1.96359
5.41831
9.90234
7.90472
8.15775
10.2217
10.6326
8.47068
8.49632
10.6776
5.62034
2.03222
14.8567
15.0355
15.3629
15.4049
15.2349
15.2288
3.54586
9.53228
9.63382
3.5752
15.0705
15.2328
15.4681
15.3317
15.4106
15.5317
15.4961
15.5948
15.5721
15.4249
13.7738
14.3933
12.7495
12.7608
14.442
14.4343
12.7708
12.6412
14.2932
13.6921
12.1138
10.7597
12.1067
8.98155
3.35392
3.01066
8.03975
14.4484
14.4967
0.81039
2.31436
6.17305
2.33251
2.99978
3.02441
8.80319
8.05794
10.8889
12.3221
13.946
12.3323
2.99761
2.97856
7.98137
8.72447
12.1947
10.77
12.1868
15.0152
14.9786
15.1192
15.2935
15.343
15.2413
15.1509
14.4852
14.6035
12.9311
12.807
14.5224
14.4436
12.8055
12.8653
9.43582
9.54994
3.55822
3.50496
12.8394
12.8157
14.4757
14.3115
12.6769
12.8368
9.46759
9.36815
3.49069
3.51829
9.48261
9.47548
3.52237
3.53668
14.9794
14.8207
14.927
15.062
15.1817
9.49658
9.48006
3.52351
3.53091
9.46427
14.4888
12.8481
12.7841
14.3963
15.3716
15.4178
15.3365
15.286
15.4009
15.2192
15.2552
15.394
15.186
15.0979
12.9423
14.7171
14.8308
13.1027
13.0671
14.7534
14.6549
13.0036
3.57267
9.62277
9.58863
3.56208
14.5058
12.7625
12.8963
14.5876
9.41263
3.50418
3.52719
9.57886
9.46064
3.5134
3.37226
9.06751
8.12435
3.03357
12.2742
13.8613
12.2611
10.904
8.12026
9.05452
3.36712
3.03149
2.31827
6.16362
2.31783
0.80914
14.939
14.9951
15.0248
15.094
14.9244
14.828
3.55804
9.57603
9.58646
3.56108
12.981
14.6171
14.6529
13.0022
13.0034
14.6811
14.5152
12.8428
3.55697
15.1385
15.1842
15.2368
15.0695
13.7085
13.6933
5.99801
6.0086
13.4892
13.6181
5.97175
5.91583


